 Entering Gaussian System, Link 0=g16
 Input=pentane_conformation_1.gjf
 Output=pentane_conformation_1.out
 Initial command:
 /n/sw/g16_nehalem/g16/l1.exe "/scratch/dhuang9_pentane_conformation_1/Gau-52196.inp" -scrdir="/scratch/dhuang9_pentane_conformation_1/"
 Entering Link 1 = /n/sw/g16_nehalem/g16/l1.exe PID=     52205.
  
 Copyright (c) 1988,1990,1992,1993,1995,1998,2003,2009,2016,
            Gaussian, Inc.  All Rights Reserved.
  
 This is part of the Gaussian(R) 16 program.  It is based on
 the Gaussian(R) 09 system (copyright 2009, Gaussian, Inc.),
 the Gaussian(R) 03 system (copyright 2003, Gaussian, Inc.),
 the Gaussian(R) 98 system (copyright 1998, Gaussian, Inc.),
 the Gaussian(R) 94 system (copyright 1995, Gaussian, Inc.),
 the Gaussian 92(TM) system (copyright 1992, Gaussian, Inc.),
 the Gaussian 90(TM) system (copyright 1990, Gaussian, Inc.),
 the Gaussian 88(TM) system (copyright 1988, Gaussian, Inc.),
 the Gaussian 86(TM) system (copyright 1986, Carnegie Mellon
 University), and the Gaussian 82(TM) system (copyright 1983,
 Carnegie Mellon University). Gaussian is a federally registered
 trademark of Gaussian, Inc.
  
 This software contains proprietary and confidential information,
 including trade secrets, belonging to Gaussian, Inc.
  
 This software is provided under written license and may be
 used, copied, transmitted, or stored only in accord with that
 written license.
  
 The following legend is applicable only to US Government
 contracts under FAR:
  
                    RESTRICTED RIGHTS LEGEND
  
 Use, reproduction and disclosure by the US Government is
 subject to restrictions as set forth in subparagraphs (a)
 and (c) of the Commercial Computer Software - Restricted
 Rights clause in FAR 52.227-19.
  
 Gaussian, Inc.
 340 Quinnipiac St., Bldg. 40, Wallingford CT 06492
  
  
 ---------------------------------------------------------------
 Warning -- This program may not be used in any manner that
 competes with the business of Gaussian, Inc. or will provide
 assistance to any competitor of Gaussian, Inc.  The licensee
 of this program is prohibited from giving any competitor of
 Gaussian, Inc. access to this program.  By using this program,
 the user acknowledges that Gaussian, Inc. is engaged in the
 business of creating and licensing software in the field of
 computational chemistry and represents and warrants to the
 licensee that it is not a competitor of Gaussian, Inc. and that
 it will not use this program in any manner prohibited above.
 ---------------------------------------------------------------
  

 Cite this work as:
 Gaussian 16, Revision A.03,
 M. J. Frisch, G. W. Trucks, H. B. Schlegel, G. E. Scuseria, 
 M. A. Robb, J. R. Cheeseman, G. Scalmani, V. Barone, 
 G. A. Petersson, H. Nakatsuji, X. Li, M. Caricato, A. V. Marenich, 
 J. Bloino, B. G. Janesko, R. Gomperts, B. Mennucci, H. P. Hratchian, 
 J. V. Ortiz, A. F. Izmaylov, J. L. Sonnenberg, D. Williams-Young, 
 F. Ding, F. Lipparini, F. Egidi, J. Goings, B. Peng, A. Petrone, 
 T. Henderson, D. Ranasinghe, V. G. Zakrzewski, J. Gao, N. Rega, 
 G. Zheng, W. Liang, M. Hada, M. Ehara, K. Toyota, R. Fukuda, 
 J. Hasegawa, M. Ishida, T. Nakajima, Y. Honda, O. Kitao, H. Nakai, 
 T. Vreven, K. Throssell, J. A. Montgomery, Jr., J. E. Peralta, 
 F. Ogliaro, M. J. Bearpark, J. J. Heyd, E. N. Brothers, K. N. Kudin, 
 V. N. Staroverov, T. A. Keith, R. Kobayashi, J. Normand, 
 K. Raghavachari, A. P. Rendell, J. C. Burant, S. S. Iyengar, 
 J. Tomasi, M. Cossi, J. M. Millam, M. Klene, C. Adamo, R. Cammi, 
 J. W. Ochterski, R. L. Martin, K. Morokuma, O. Farkas, 
 J. B. Foresman, and D. J. Fox, Gaussian, Inc., Wallingford CT, 2016.
 
 ******************************************
 Gaussian 16:  ES64L-G16RevA.03 25-Dec-2016
                 3-Nov-2017 
 ******************************************
 %mem=1GB
 ------------------------
 #p pddg opt freq=noraman
 ------------------------
 1/18=20,19=15,26=1,38=1/1,3;
 2/9=110,12=2,17=6,18=5,40=1/2;
 3/5=2,25=1,41=4000000,71=1/1,2,3;
 4/35=1/1;
 5/5=2,35=1,38=5/2;
 6/7=2,8=2,9=2,10=2,28=1/1;
 7//1,2,3,16;
 1/18=20,19=15,26=1/3(2);
 2/9=110/2;
 99//99;
 2/9=110/2;
 3/5=2,25=1,41=4000000,71=1,135=20/1,2,3;
 4/5=5,16=3,35=1/1;
 5/5=2,35=1,38=5/2;
 7//1,2,3,16;
 1/18=20,19=15,26=1/3(-5);
 2/9=110/2;
 6/7=2,8=2,9=2,10=2,19=2,28=1/1;
 99/9=1/99;
 Leave Link    1 at Fri Nov  3 15:08:03 2017, MaxMem=   134217728 cpu:               0.0 elap:               0.1
 (Enter /n/sw/g16_nehalem/g16/l101.exe)
 ----------------------
 pentane conformation 1
 ----------------------
 Symbolic Z-matrix:
 Charge =  0 Multiplicity = 1
 C                     0.16129  -1.06452   0. 
 H                     0.51794  -2.07333   0. 
 H                     0.51796  -0.56012  -0.87365 
 H                    -0.90871  -1.0645    0. 
 C                     0.67463  -0.33856   1.2574 
 H                     0.31958   0.67081   1.25643 
 H                     0.31636  -0.84183   2.13106 
 C                     2.21463  -0.34102   1.25881 
 H                     2.5729    0.16192   0.38497 
 H                     2.5713    0.16371   2.13228 
 C                     2.72564  -1.79376   1.26076 
 H                     2.7562   -2.16245   0.25675 
 H                     2.06726  -2.40266   1.84443 
 C                     4.14026  -1.83951   1.86769 
 H                     4.09799  -1.53935   2.89385 
 H                     4.524    -2.83624   1.80315 
 H                     4.78169  -1.17471   1.32776 
 
 ITRead=  0  0  0  0  0  0  0  0  0  0  0  0  0  0  0  0  0
 MicOpt= -1 -1 -1 -1 -1 -1 -1 -1 -1 -1 -1 -1 -1 -1 -1 -1 -1
 NAtoms=     17 NQM=       17 NQMF=       0 NMMI=      0 NMMIF=      0
                NMic=       0 NMicF=      0.
                    Isotopes and Nuclear Properties:
 (Nuclear quadrupole moments (NQMom) in fm**2, nuclear magnetic moments (NMagM)
  in nuclear magnetons)

  Atom         1           2           3           4           5           6           7           8           9          10
 IAtWgt=          12           1           1           1          12           1           1          12           1           1
 AtmWgt=  12.0000000   1.0078250   1.0078250   1.0078250  12.0000000   1.0078250   1.0078250  12.0000000   1.0078250   1.0078250
 NucSpn=           0           1           1           1           0           1           1           0           1           1
 AtZEff=   0.0000000   0.0000000   0.0000000   0.0000000   0.0000000   0.0000000   0.0000000   0.0000000   0.0000000   0.0000000
 NQMom=    0.0000000   0.0000000   0.0000000   0.0000000   0.0000000   0.0000000   0.0000000   0.0000000   0.0000000   0.0000000
 NMagM=    0.0000000   2.7928460   2.7928460   2.7928460   0.0000000   2.7928460   2.7928460   0.0000000   2.7928460   2.7928460
 AtZNuc=   6.0000000   1.0000000   1.0000000   1.0000000   6.0000000   1.0000000   1.0000000   6.0000000   1.0000000   1.0000000

  Atom        11          12          13          14          15          16          17
 IAtWgt=          12           1           1          12           1           1           1
 AtmWgt=  12.0000000   1.0078250   1.0078250  12.0000000   1.0078250   1.0078250   1.0078250
 NucSpn=           0           1           1           0           1           1           1
 AtZEff=   0.0000000   0.0000000   0.0000000   0.0000000   0.0000000   0.0000000   0.0000000
 NQMom=    0.0000000   0.0000000   0.0000000   0.0000000   0.0000000   0.0000000   0.0000000
 NMagM=    0.0000000   2.7928460   2.7928460   0.0000000   2.7928460   2.7928460   2.7928460
 AtZNuc=   6.0000000   1.0000000   1.0000000   6.0000000   1.0000000   1.0000000   1.0000000
 Leave Link  101 at Fri Nov  3 15:08:03 2017, MaxMem=   134217728 cpu:               0.4 elap:               0.5
 (Enter /n/sw/g16_nehalem/g16/l103.exe)

 GradGradGradGradGradGradGradGradGradGradGradGradGradGradGradGradGradGrad
 Berny optimization.
 Initialization pass.
                           ----------------------------
                           !    Initial Parameters    !
                           ! (Angstroms and Degrees)  !
 --------------------------                            --------------------------
 ! Name  Definition              Value          Derivative Info.                !
 --------------------------------------------------------------------------------
 ! R1    R(1,2)                  1.07           estimate D2E/DX2                !
 ! R2    R(1,3)                  1.07           estimate D2E/DX2                !
 ! R3    R(1,4)                  1.07           estimate D2E/DX2                !
 ! R4    R(1,5)                  1.54           estimate D2E/DX2                !
 ! R5    R(5,6)                  1.07           estimate D2E/DX2                !
 ! R6    R(5,7)                  1.07           estimate D2E/DX2                !
 ! R7    R(5,8)                  1.54           estimate D2E/DX2                !
 ! R8    R(8,9)                  1.07           estimate D2E/DX2                !
 ! R9    R(8,10)                 1.07           estimate D2E/DX2                !
 ! R10   R(8,11)                 1.54           estimate D2E/DX2                !
 ! R11   R(11,12)                1.07           estimate D2E/DX2                !
 ! R12   R(11,13)                1.07           estimate D2E/DX2                !
 ! R13   R(11,14)                1.54           estimate D2E/DX2                !
 ! R14   R(14,15)                1.07           estimate D2E/DX2                !
 ! R15   R(14,16)                1.07           estimate D2E/DX2                !
 ! R16   R(14,17)                1.07           estimate D2E/DX2                !
 ! A1    A(2,1,3)              109.4712         estimate D2E/DX2                !
 ! A2    A(2,1,4)              109.4712         estimate D2E/DX2                !
 ! A3    A(2,1,5)              109.4712         estimate D2E/DX2                !
 ! A4    A(3,1,4)              109.4712         estimate D2E/DX2                !
 ! A5    A(3,1,5)              109.4713         estimate D2E/DX2                !
 ! A6    A(4,1,5)              109.4712         estimate D2E/DX2                !
 ! A7    A(1,5,6)              109.4712         estimate D2E/DX2                !
 ! A8    A(1,5,7)              109.4712         estimate D2E/DX2                !
 ! A9    A(1,5,8)              109.4712         estimate D2E/DX2                !
 ! A10   A(6,5,7)              109.4712         estimate D2E/DX2                !
 ! A11   A(6,5,8)              109.4713         estimate D2E/DX2                !
 ! A12   A(7,5,8)              109.4712         estimate D2E/DX2                !
 ! A13   A(5,8,9)              109.4712         estimate D2E/DX2                !
 ! A14   A(5,8,10)             109.4712         estimate D2E/DX2                !
 ! A15   A(5,8,11)             109.4712         estimate D2E/DX2                !
 ! A16   A(9,8,10)             109.4713         estimate D2E/DX2                !
 ! A17   A(9,8,11)             109.4712         estimate D2E/DX2                !
 ! A18   A(10,8,11)            109.4712         estimate D2E/DX2                !
 ! A19   A(8,11,12)            109.4712         estimate D2E/DX2                !
 ! A20   A(8,11,13)            109.4712         estimate D2E/DX2                !
 ! A21   A(8,11,14)            109.4712         estimate D2E/DX2                !
 ! A22   A(12,11,13)           109.4712         estimate D2E/DX2                !
 ! A23   A(12,11,14)           109.4713         estimate D2E/DX2                !
 ! A24   A(13,11,14)           109.4712         estimate D2E/DX2                !
 ! A25   A(11,14,15)           109.4712         estimate D2E/DX2                !
 ! A26   A(11,14,16)           109.4712         estimate D2E/DX2                !
 ! A27   A(11,14,17)           109.4712         estimate D2E/DX2                !
 ! A28   A(15,14,16)           109.4712         estimate D2E/DX2                !
 ! A29   A(15,14,17)           109.4712         estimate D2E/DX2                !
 ! A30   A(16,14,17)           109.4712         estimate D2E/DX2                !
 ! D1    D(2,1,5,6)            179.8889         estimate D2E/DX2                !
 ! D2    D(2,1,5,7)            -60.1111         estimate D2E/DX2                !
 ! D3    D(2,1,5,8)             59.8889         estimate D2E/DX2                !
 ! D4    D(3,1,5,6)             59.8889         estimate D2E/DX2                !
 ! D5    D(3,1,5,7)            179.8889         estimate D2E/DX2                !
 ! D6    D(3,1,5,8)            -60.1111         estimate D2E/DX2                !
 ! D7    D(4,1,5,6)            -60.1111         estimate D2E/DX2                !
 ! D8    D(4,1,5,7)             59.8889         estimate D2E/DX2                !
 ! D9    D(4,1,5,8)            179.8889         estimate D2E/DX2                !
 ! D10   D(1,5,8,9)             59.9786         estimate D2E/DX2                !
 ! D11   D(1,5,8,10)           179.9786         estimate D2E/DX2                !
 ! D12   D(1,5,8,11)           -60.0214         estimate D2E/DX2                !
 ! D13   D(6,5,8,9)            -60.0214         estimate D2E/DX2                !
 ! D14   D(6,5,8,10)            59.9786         estimate D2E/DX2                !
 ! D15   D(6,5,8,11)           179.9786         estimate D2E/DX2                !
 ! D16   D(7,5,8,9)            179.9786         estimate D2E/DX2                !
 ! D17   D(7,5,8,10)           -60.0214         estimate D2E/DX2                !
 ! D18   D(7,5,8,11)            59.9786         estimate D2E/DX2                !
 ! D19   D(5,8,11,12)           84.6511         estimate D2E/DX2                !
 ! D20   D(5,8,11,13)          -35.3489         estimate D2E/DX2                !
 ! D21   D(5,8,11,14)         -155.3489         estimate D2E/DX2                !
 ! D22   D(9,8,11,12)          -35.3489         estimate D2E/DX2                !
 ! D23   D(9,8,11,13)         -155.3489         estimate D2E/DX2                !
 ! D24   D(9,8,11,14)           84.6511         estimate D2E/DX2                !
 ! D25   D(10,8,11,12)        -155.3489         estimate D2E/DX2                !
 ! D26   D(10,8,11,13)          84.6511         estimate D2E/DX2                !
 ! D27   D(10,8,11,14)         -35.3489         estimate D2E/DX2                !
 ! D28   D(8,11,14,15)          64.1453         estimate D2E/DX2                !
 ! D29   D(8,11,14,16)        -175.8547         estimate D2E/DX2                !
 ! D30   D(8,11,14,17)         -55.8547         estimate D2E/DX2                !
 ! D31   D(12,11,14,15)       -175.8548         estimate D2E/DX2                !
 ! D32   D(12,11,14,16)        -55.8547         estimate D2E/DX2                !
 ! D33   D(12,11,14,17)         64.1452         estimate D2E/DX2                !
 ! D34   D(13,11,14,15)        -55.8547         estimate D2E/DX2                !
 ! D35   D(13,11,14,16)         64.1453         estimate D2E/DX2                !
 ! D36   D(13,11,14,17)       -175.8547         estimate D2E/DX2                !
 --------------------------------------------------------------------------------
 Trust Radius=3.00D-01 FncErr=1.00D-07 GrdErr=1.00D-07 EigMax=2.50D+02 EigMin=1.00D-04
 Number of steps in this run=     92 maximum allowed number of steps=    102.
 GradGradGradGradGradGradGradGradGradGradGradGradGradGradGradGradGradGrad

 Leave Link  103 at Fri Nov  3 15:08:04 2017, MaxMem=   134217728 cpu:               0.0 elap:               0.1
 (Enter /n/sw/g16_nehalem/g16/l202.exe)
                          Input orientation:                          
 ---------------------------------------------------------------------
 Center     Atomic      Atomic             Coordinates (Angstroms)
 Number     Number       Type             X           Y           Z
 ---------------------------------------------------------------------
      1          6           0        0.161290   -1.064516    0.000000
      2          1           0        0.517945   -2.073326    0.000000
      3          1           0        0.517963   -0.560118   -0.873652
      4          1           0       -0.908710   -1.064503    0.000000
      5          6           0        0.674633   -0.338560    1.257405
      6          1           0        0.319576    0.670813    1.256428
      7          1           0        0.316364   -0.841828    2.131055
      8          6           0        2.214630   -0.341017    1.258813
      9          1           0        2.572898    0.161925    0.384974
     10          1           0        2.571303    0.163708    2.132276
     11          6           0        2.725645   -1.793759    1.260762
     12          1           0        2.756201   -2.162447    0.256752
     13          1           0        2.067259   -2.402659    1.844431
     14          6           0        4.140265   -1.839505    1.867687
     15          1           0        4.097986   -1.539346    2.893853
     16          1           0        4.524001   -2.836240    1.803145
     17          1           0        4.781692   -1.174714    1.327757
 ---------------------------------------------------------------------
                    Distance matrix (angstroms):
                    1          2          3          4          5
     1  C    0.000000
     2  H    1.070000   0.000000
     3  H    1.070000   1.747302   0.000000
     4  H    1.070000   1.747303   1.747303   0.000000
     5  C    1.540000   2.148263   2.148263   2.148263   0.000000
     6  H    2.148263   3.024609   2.468154   2.469538   1.070000
     7  H    2.148263   2.469538   3.024610   2.468154   1.070000
     8  C    2.514809   2.732077   2.733878   3.444313   1.540000
     9  H    2.732804   3.060618   2.515600   3.711324   2.148263
    10  H    3.444314   3.710418   3.711567   4.262111   2.148263
    11  C    2.949107   2.557659   3.309298   3.915338   2.514810
    12  H    2.829299   2.254696   2.975732   3.834445   2.942923
    13  H    2.970736   2.431206   3.630874   3.748197   2.558225
    14  C    4.463306   4.082172   4.719411   5.438844   3.825688
    15  H    4.908912   4.634244   5.288624   5.802315   3.979849
    16  H    5.042181   4.458908   5.328632   5.992056   4.621026
    17  H    4.808658   4.555215   4.837697   5.844293   4.191902
                    6          7          8          9         10
     6  H    0.000000
     7  H    1.747303   0.000000
     8  C    2.148263   2.148263   0.000000
     9  H    2.468979   3.024610   1.070000   0.000000
    10  H    2.468713   2.468979   1.070000   1.747303   0.000000
    11  C    3.444314   2.732804   1.540000   2.148263   2.148263
    12  H    3.868314   3.348112   2.148263   2.335111   2.993789
    13  H    3.584184   2.363045   2.148263   2.993789   2.631188
    14  C    4.612266   3.960675   2.514809   2.942923   2.558224
    15  H    4.673580   3.920339   2.767016   3.393330   2.410633
    16  H    5.502319   4.667914   3.443201   3.847987   3.594585
    17  H    4.829238   4.549204   2.699928   2.748493   2.706370
                   11         12         13         14         15
    11  C    0.000000
    12  H    1.070000   0.000000
    13  H    1.070000   1.747303   0.000000
    14  C    1.540000   2.148263   2.148263   0.000000
    15  H    2.148263   3.023730   2.443449   1.070000   0.000000
    16  H    2.148263   2.443450   2.495051   1.070000   1.747303
    17  H    2.148263   2.495051   3.023730   1.070000   1.747303
                   16         17
    16  H    0.000000
    17  H    1.747303   0.000000
 Stoichiometry    C5H12
 Framework group  C1[X(C5H12)]
 Deg. of freedom    45
 Full point group                 C1      NOp   1
 Largest Abelian subgroup         C1      NOp   1
 Largest concise Abelian subgroup C1      NOp   1
                         Standard orientation:                         
 ---------------------------------------------------------------------
 Center     Atomic      Atomic             Coordinates (Angstroms)
 Number     Number       Type             X           Y           Z
 ---------------------------------------------------------------------
      1          6           0        2.034419   -0.669521    0.127023
      2          1           0        1.442859   -1.506822   -0.179383
      3          1           0        2.133664   -0.673719    1.192402
      4          1           0        3.003609   -0.734253   -0.321730
      5          6           0        1.348073    0.634772   -0.319462
      6          1           0        1.938658    1.472140   -0.011362
      7          1           0        1.250575    0.639835   -1.384998
      8          6           0       -0.047947    0.726595    0.324196
      9          1           0        0.049527    0.721156    1.389733
     10          1           0       -0.524675    1.633004    0.014273
     11          6           0       -0.898125   -0.478306   -0.119665
     12          1           0       -0.692890   -1.313487    0.516928
     13          1           0       -0.656285   -0.732429   -1.130523
     14          6           0       -2.391754   -0.115422   -0.024863
     15          1           0       -2.611915    0.672251   -0.714791
     16          1           0       -2.983349   -0.974433   -0.263641
     17          1           0       -2.617778    0.208050    0.969712
 ---------------------------------------------------------------------
 Rotational constants (GHZ):          11.5712060           2.4494621           2.2243657
 Leave Link  202 at Fri Nov  3 15:08:04 2017, MaxMem=   134217728 cpu:               0.0 elap:               0.1
 (Enter /n/sw/g16_nehalem/g16/l301.exe)
 Standard basis: VSTO-6G (5D, 7F)
 Ernie: Thresh=  0.10000D-02 Tol=  0.10000D-05 Strict=F.
  NNHCO=     0 NNPyr=     0 NCTC=     0               EPep=         0.000000000
    EC=        93.406227795  ECS=         1.927712360   EG=         0.553808185
   EHC=         0.000000000  EAt=       -26.628119222  AtH=         2.358010613
 EPDDG=         0.001559810  ECC=        95.889308150 EAtT=        28.986129834
 There are    32 symmetry adapted cartesian basis functions of A   symmetry.
 There are    32 symmetry adapted basis functions of A   symmetry.
    32 basis functions,   192 primitive gaussians,    32 cartesian basis functions
    16 alpha electrons       16 beta electrons
       nuclear repulsion energy       124.8754379846 Hartrees.
 IExCor=    0 DFT=F Ex=HF Corr=None ExCW=0 ScaHFX=  1.000000
 ScaDFX=  1.000000  1.000000  1.000000  1.000000 ScalE2=  1.000000  1.000000
 IRadAn=      5 IRanWt=     -1 IRanGd=            0 ICorTp=0 IEmpDi=  4
 Integral buffers will be    131072 words long.
 Regular integral format.
 Two-electron integral symmetry is turned off.
 Leave Link  301 at Fri Nov  3 15:08:04 2017, MaxMem=   134217728 cpu:               0.1 elap:               0.2
 (Enter /n/sw/g16_nehalem/g16/l302.exe)
 Do NDO integrals.
 NPDir=0 NMtPBC=     1 NCelOv=     1 NCel=       1 NClECP=     1 NCelD=      1
         NCelK=      1 NCelE2=     1 NClLst=     1 CellRange=     0.0.
 One-electron integrals computed using PRISM.
 NBasis=    32 RedAO= F EigKep=  0.00D+00  NBF=    32
 NBsUse=    32 1.00D-04 EigRej=  0.00D+00 NBFU=    32
 Leave Link  302 at Fri Nov  3 15:08:05 2017, MaxMem=   134217728 cpu:               0.2 elap:               0.4
 (Enter /n/sw/g16_nehalem/g16/l303.exe)
 DipDrv:  MaxL=1.
 Leave Link  303 at Fri Nov  3 15:08:05 2017, MaxMem=   134217728 cpu:               0.1 elap:               0.1
 (Enter /n/sw/g16_nehalem/g16/l401.exe)
 Simple Huckel Guess.
 JPrj=0 DoOrth=F DoCkMO=F.
 Leave Link  401 at Fri Nov  3 15:08:05 2017, MaxMem=   134217728 cpu:               0.1 elap:               0.2
 (Enter /n/sw/g16_nehalem/g16/l502.exe)
 Keep J ints in memory in canonical form, NReq=861453.
 FoFCou: FMM=F IPFlag=           0 FMFlag=           0 FMFlg1=           0
         NFxFlg=           0 DoJE=F BraDBF=F KetDBF=F FulRan=T
         wScrn=  0.000000 ICntrl=       600 IOpCl=  2 I1Cent=           0 NGrid=           0
         NMat0=    1 NMatS0=     62 NMatT0=    0 NMatD0=    1 NMtDS0=    0 NMtDT0=    0
 Symmetry not used in FoFCou.
 Two-electron integral symmetry not used.
 Closed shell SCF:
 Using DIIS extrapolation, IDIIS=  1040.
 Overlap will be assumed to be unity.
 NGot=   134217728 LenX=   134153800 LenY=   134152335
 Requested convergence on RMS density matrix=1.00D-08 within 128 cycles.
 Requested convergence on MAX density matrix=1.00D-06.
 Requested convergence on             energy=1.00D-06.
 No special actions if energy rises.

 Cycle   1  Pass 1  IDiag  1:
 E= 0.126344702410790    
 DIIS: error= 3.18D-02 at cycle   1 NSaved=   1.
 NSaved= 1 IEnMin= 1 EnMin= 0.126344702410790     IErMin= 1 ErrMin= 3.18D-02
 ErrMax= 3.18D-02  0.00D+00 EMaxC= 1.00D-01 BMatC= 6.97D-02 BMatP= 6.97D-02
 IDIUse=3 WtCom= 6.82D-01 WtEn= 3.18D-01
 Coeff-Com:  0.100D+01
 Coeff-En:   0.100D+01
 Coeff:      0.100D+01
 GapD=    2.000 DampG=2.000 DampE=0.500 DampFc=1.0000 IDamp=-1.
 RMSDP=1.07D-02 MaxDP=1.02D-01              OVMax= 0.00D+00

 Cycle   2  Pass 1  IDiag  1:
 E=-0.309063264899123E-01 Delta-E=       -0.157251028901 Rises=F Damp=F
 DIIS: error= 8.34D-03 at cycle   2 NSaved=   2.
 NSaved= 2 IEnMin= 2 EnMin=-0.309063264899123E-01 IErMin= 2 ErrMin= 8.34D-03
 ErrMax= 8.34D-03  0.00D+00 EMaxC= 1.00D-01 BMatC= 4.42D-03 BMatP= 6.97D-02
 IDIUse=3 WtCom= 9.17D-01 WtEn= 8.34D-02
 Coeff-Com: -0.319D+00 0.132D+01
 Coeff-En:   0.000D+00 0.100D+01
 Coeff:     -0.292D+00 0.129D+01
 RMSDP=3.68D-03 MaxDP=3.36D-02 DE=-1.57D-01 OVMax= 0.00D+00

 Cycle   3  Pass 1  IDiag  3:
 E=-0.425062112430084E-01 Delta-E=       -0.011599884753 Rises=F Damp=F
 DIIS: error= 7.31D-04 at cycle   3 NSaved=   3.
 NSaved= 3 IEnMin= 3 EnMin=-0.425062112430084E-01 IErMin= 3 ErrMin= 7.31D-04
 ErrMax= 7.31D-04  0.00D+00 EMaxC= 1.00D-01 BMatC= 5.03D-05 BMatP= 4.42D-03
 IDIUse=3 WtCom= 9.93D-01 WtEn= 7.31D-03
 Coeff-Com:  0.115D+00-0.529D+00 0.141D+01
 Coeff-En:   0.000D+00 0.000D+00 0.100D+01
 Coeff:      0.114D+00-0.525D+00 0.141D+01
 Gap=     0.546 Goal=   None    Shift=    0.000
 RMSDP=6.05D-04 MaxDP=3.37D-03 DE=-1.16D-02 OVMax= 3.84D-03

 Cycle   4  Pass 1  IDiag  3:
 E=-0.427384462933276E-01 Delta-E=       -0.000232235050 Rises=F Damp=F
 DIIS: error= 2.65D-04 at cycle   4 NSaved=   4.
 NSaved= 4 IEnMin= 4 EnMin=-0.427384462933276E-01 IErMin= 4 ErrMin= 2.65D-04
 ErrMax= 2.65D-04  0.00D+00 EMaxC= 1.00D-01 BMatC= 3.60D-06 BMatP= 5.03D-05
 IDIUse=3 WtCom= 9.97D-01 WtEn= 2.65D-03
 Coeff-Com: -0.715D-01 0.337D+00-0.108D+01 0.182D+01
 Coeff-En:   0.000D+00 0.000D+00 0.000D+00 0.100D+01
 Coeff:     -0.714D-01 0.336D+00-0.108D+01 0.181D+01
 Gap=     0.547 Goal=   None    Shift=    0.000
 RMSDP=2.52D-04 MaxDP=1.79D-03 DE=-2.32D-04 OVMax= 1.29D-03

 Cycle   5  Pass 1  IDiag  3:
 E=-0.427609139292002E-01 Delta-E=       -0.000022467636 Rises=F Damp=F
 DIIS: error= 3.24D-05 at cycle   5 NSaved=   5.
 NSaved= 5 IEnMin= 5 EnMin=-0.427609139292002E-01 IErMin= 5 ErrMin= 3.24D-05
 ErrMax= 3.24D-05  0.00D+00 EMaxC= 1.00D-01 BMatC= 4.70D-08 BMatP= 3.60D-06
 IDIUse=1 WtCom= 1.00D+00 WtEn= 0.00D+00
 Coeff-Com:  0.135D-01-0.633D-01 0.206D+00-0.382D+00 0.123D+01
 Coeff:      0.135D-01-0.633D-01 0.206D+00-0.382D+00 0.123D+01
 Gap=     0.546 Goal=   None    Shift=    0.000
 RMSDP=1.83D-05 MaxDP=1.73D-04 DE=-2.25D-05 OVMax= 1.09D-04

 Cycle   6  Pass 1  IDiag  3:
 E=-0.427611409704127E-01 Delta-E=       -0.000000227041 Rises=F Damp=F
 DIIS: error= 1.07D-05 at cycle   6 NSaved=   6.
 NSaved= 6 IEnMin= 6 EnMin=-0.427611409704127E-01 IErMin= 6 ErrMin= 1.07D-05
 ErrMax= 1.07D-05  0.00D+00 EMaxC= 1.00D-01 BMatC= 6.41D-09 BMatP= 4.70D-08
 IDIUse=1 WtCom= 1.00D+00 WtEn= 0.00D+00
 Coeff-Com: -0.450D-02 0.210D-01-0.656D-01 0.118D+00-0.643D+00 0.157D+01
 Coeff:     -0.450D-02 0.210D-01-0.656D-01 0.118D+00-0.643D+00 0.157D+01
 Gap=     0.547 Goal=   None    Shift=    0.000
 RMSDP=9.23D-06 MaxDP=7.87D-05 DE=-2.27D-07 OVMax= 6.34D-05

 Cycle   7  Pass 1  IDiag  3:
 E=-0.427611812988147E-01 Delta-E=       -0.000000040328 Rises=F Damp=F
 DIIS: error= 3.76D-06 at cycle   7 NSaved=   7.
 NSaved= 7 IEnMin= 7 EnMin=-0.427611812988147E-01 IErMin= 7 ErrMin= 3.76D-06
 ErrMax= 3.76D-06  0.00D+00 EMaxC= 1.00D-01 BMatC= 5.45D-10 BMatP= 6.41D-09
 IDIUse=1 WtCom= 1.00D+00 WtEn= 0.00D+00
 Coeff-Com:  0.892D-03-0.407D-02 0.115D-01-0.176D-01 0.212D+00-0.850D+00
 Coeff-Com:  0.165D+01
 Coeff:      0.892D-03-0.407D-02 0.115D-01-0.176D-01 0.212D+00-0.850D+00
 Coeff:      0.165D+01
 Gap=     0.547 Goal=   None    Shift=    0.000
 RMSDP=3.36D-06 MaxDP=2.82D-05 DE=-4.03D-08 OVMax= 2.14D-05

 Cycle   8  Pass 1  IDiag  3:
 E=-0.427611850187759E-01 Delta-E=       -0.000000003720 Rises=F Damp=F
 DIIS: error= 3.74D-07 at cycle   8 NSaved=   8.
 NSaved= 8 IEnMin= 8 EnMin=-0.427611850187759E-01 IErMin= 8 ErrMin= 3.74D-07
 ErrMax= 3.74D-07  0.00D+00 EMaxC= 1.00D-01 BMatC= 1.40D-11 BMatP= 5.45D-10
 IDIUse=1 WtCom= 1.00D+00 WtEn= 0.00D+00
 Coeff-Com:  0.283D-05-0.532D-04 0.702D-03-0.283D-02-0.389D-01 0.228D+00
 Coeff-Com: -0.579D+00 0.139D+01
 Coeff:      0.283D-05-0.532D-04 0.702D-03-0.283D-02-0.389D-01 0.228D+00
 Coeff:     -0.579D+00 0.139D+01
 Gap=     0.547 Goal=   None    Shift=    0.000
 RMSDP=4.20D-07 MaxDP=2.87D-06 DE=-3.72D-09 OVMax= 2.62D-06

 Cycle   9  Pass 1  IDiag  3:
 E=-0.427611850983567E-01 Delta-E=       -0.000000000080 Rises=F Damp=F
 DIIS: error= 2.16D-07 at cycle   9 NSaved=   9.
 NSaved= 9 IEnMin= 9 EnMin=-0.427611850983567E-01 IErMin= 9 ErrMin= 2.16D-07
 ErrMax= 2.16D-07  0.00D+00 EMaxC= 1.00D-01 BMatC= 1.07D-12 BMatP= 1.40D-11
 IDIUse=1 WtCom= 1.00D+00 WtEn= 0.00D+00
 Coeff-Com: -0.138D-04 0.880D-04-0.596D-03 0.205D-02 0.202D-01-0.126D+00
 Coeff-Com:  0.332D+00-0.947D+00 0.172D+01
 Coeff:     -0.138D-04 0.880D-04-0.596D-03 0.205D-02 0.202D-01-0.126D+00
 Coeff:      0.332D+00-0.947D+00 0.172D+01
 Gap=     0.547 Goal=   None    Shift=    0.000
 RMSDP=1.30D-07 MaxDP=1.42D-06 DE=-7.96D-11 OVMax= 8.15D-07

 Cycle  10  Pass 1  IDiag  3:
 E=-0.427611851054621E-01 Delta-E=       -0.000000000007 Rises=F Damp=F
 DIIS: error= 5.69D-08 at cycle  10 NSaved=  10.
 NSaved=10 IEnMin=10 EnMin=-0.427611851054621E-01 IErMin=10 ErrMin= 5.69D-08
 ErrMax= 5.69D-08  0.00D+00 EMaxC= 1.00D-01 BMatC= 5.79D-14 BMatP= 1.07D-12
 IDIUse=1 WtCom= 1.00D+00 WtEn= 0.00D+00
 Coeff-Com: -0.344D-06-0.871D-05 0.167D-03-0.735D-03-0.927D-02 0.556D-01
 Coeff-Com: -0.146D+00 0.424D+00-0.937D+00 0.161D+01
 Coeff:     -0.344D-06-0.871D-05 0.167D-03-0.735D-03-0.927D-02 0.556D-01
 Coeff:     -0.146D+00 0.424D+00-0.937D+00 0.161D+01
 Gap=     0.547 Goal=   None    Shift=    0.000
 RMSDP=3.28D-08 MaxDP=3.99D-07 DE=-7.11D-12 OVMax= 1.79D-07

 Cycle  11  Pass 1  IDiag  3:
 E=-0.427611851057463E-01 Delta-E=        0.000000000000 Rises=F Damp=F
 DIIS: error= 4.99D-09 at cycle  11 NSaved=  11.
 NSaved=11 IEnMin=11 EnMin=-0.427611851057463E-01 IErMin=11 ErrMin= 4.99D-09
 ErrMax= 4.99D-09  0.00D+00 EMaxC= 1.00D-01 BMatC= 1.02D-15 BMatP= 5.79D-14
 IDIUse=1 WtCom= 1.00D+00 WtEn= 0.00D+00
 Coeff-Com: -0.150D-06 0.382D-05-0.542D-04 0.228D-03 0.276D-02-0.167D-01
 Coeff-Com:  0.439D-01-0.129D+00 0.295D+00-0.590D+00 0.139D+01
 Coeff:     -0.150D-06 0.382D-05-0.542D-04 0.228D-03 0.276D-02-0.167D-01
 Coeff:      0.439D-01-0.129D+00 0.295D+00-0.590D+00 0.139D+01
 Gap=     0.547 Goal=   None    Shift=    0.000
 RMSDP=3.43D-09 MaxDP=3.55D-08 DE=-2.84D-13 OVMax= 1.52D-08

 Cycle  12  Pass 2  IDiag  1:
 SCF Done:  E(RPDDG) = -0.427611851057E-01 A.U. after   12 cycles
            NFock= 11  Conv=0.34D-08     -V/T= 0.9990
 KE=-4.260464520097D+01 PE=-1.856828656105D+02 EE= 1.033693116418D+02
 Leave Link  502 at Fri Nov  3 15:08:06 2017, MaxMem=   134217728 cpu:               0.1 elap:               0.2
 (Enter /n/sw/g16_nehalem/g16/l601.exe)
 Copying SCF densities to generalized density rwf, IOpCl= 0 IROHF=0.

 **********************************************************************

            Population analysis using the SCF density.

 **********************************************************************

 Orbital symmetries:
       Occupied  (A) (A) (A) (A) (A) (A) (A) (A) (A) (A) (A) (A)
                 (A) (A) (A) (A)
       Virtual   (A) (A) (A) (A) (A) (A) (A) (A) (A) (A) (A) (A)
                 (A) (A) (A) (A)
 The electronic state is 1-A.
 Alpha  occ. eigenvalues --   -1.47560  -1.22422  -0.99066  -0.85428  -0.76299
 Alpha  occ. eigenvalues --   -0.61065  -0.57485  -0.56021  -0.53240  -0.49919
 Alpha  occ. eigenvalues --   -0.48216  -0.47358  -0.44859  -0.44055  -0.42351
 Alpha  occ. eigenvalues --   -0.42100
 Alpha virt. eigenvalues --    0.12553   0.13537   0.14862   0.15609   0.15952
 Alpha virt. eigenvalues --    0.16344   0.16508   0.16891   0.17632   0.18010
 Alpha virt. eigenvalues --    0.18617   0.19071   0.19477   0.20113   0.20256
 Alpha virt. eigenvalues --    0.20818
          Condensed to atoms (all electrons):
               1          2          3          4          5          6
     1  C    4.280139   0.000000   0.000000   0.000000   0.000000   0.000000
     2  H    0.000000   0.903744   0.000000   0.000000   0.000000   0.000000
     3  H    0.000000   0.000000   0.908555   0.000000   0.000000   0.000000
     4  H    0.000000   0.000000   0.000000   0.910850   0.000000   0.000000
     5  C    0.000000   0.000000   0.000000   0.000000   4.185947   0.000000
     6  H    0.000000   0.000000   0.000000   0.000000   0.000000   0.905819
     7  H    0.000000   0.000000   0.000000   0.000000   0.000000   0.000000
     8  C    0.000000   0.000000   0.000000   0.000000   0.000000   0.000000
     9  H    0.000000   0.000000   0.000000   0.000000   0.000000   0.000000
    10  H    0.000000   0.000000   0.000000   0.000000   0.000000   0.000000
    11  C    0.000000   0.000000   0.000000   0.000000   0.000000   0.000000
    12  H    0.000000   0.000000   0.000000   0.000000   0.000000   0.000000
    13  H    0.000000   0.000000   0.000000   0.000000   0.000000   0.000000
    14  C    0.000000   0.000000   0.000000   0.000000   0.000000   0.000000
    15  H    0.000000   0.000000   0.000000   0.000000   0.000000   0.000000
    16  H    0.000000   0.000000   0.000000   0.000000   0.000000   0.000000
    17  H    0.000000   0.000000   0.000000   0.000000   0.000000   0.000000
               7          8          9         10         11         12
     1  C    0.000000   0.000000   0.000000   0.000000   0.000000   0.000000
     2  H    0.000000   0.000000   0.000000   0.000000   0.000000   0.000000
     3  H    0.000000   0.000000   0.000000   0.000000   0.000000   0.000000
     4  H    0.000000   0.000000   0.000000   0.000000   0.000000   0.000000
     5  C    0.000000   0.000000   0.000000   0.000000   0.000000   0.000000
     6  H    0.000000   0.000000   0.000000   0.000000   0.000000   0.000000
     7  H    0.904083   0.000000   0.000000   0.000000   0.000000   0.000000
     8  C    0.000000   4.199259   0.000000   0.000000   0.000000   0.000000
     9  H    0.000000   0.000000   0.902593   0.000000   0.000000   0.000000
    10  H    0.000000   0.000000   0.000000   0.900704   0.000000   0.000000
    11  C    0.000000   0.000000   0.000000   0.000000   4.193258   0.000000
    12  H    0.000000   0.000000   0.000000   0.000000   0.000000   0.902580
    13  H    0.000000   0.000000   0.000000   0.000000   0.000000   0.000000
    14  C    0.000000   0.000000   0.000000   0.000000   0.000000   0.000000
    15  H    0.000000   0.000000   0.000000   0.000000   0.000000   0.000000
    16  H    0.000000   0.000000   0.000000   0.000000   0.000000   0.000000
    17  H    0.000000   0.000000   0.000000   0.000000   0.000000   0.000000
              13         14         15         16         17
     1  C    0.000000   0.000000   0.000000   0.000000   0.000000
     2  H    0.000000   0.000000   0.000000   0.000000   0.000000
     3  H    0.000000   0.000000   0.000000   0.000000   0.000000
     4  H    0.000000   0.000000   0.000000   0.000000   0.000000
     5  C    0.000000   0.000000   0.000000   0.000000   0.000000
     6  H    0.000000   0.000000   0.000000   0.000000   0.000000
     7  H    0.000000   0.000000   0.000000   0.000000   0.000000
     8  C    0.000000   0.000000   0.000000   0.000000   0.000000
     9  H    0.000000   0.000000   0.000000   0.000000   0.000000
    10  H    0.000000   0.000000   0.000000   0.000000   0.000000
    11  C    0.000000   0.000000   0.000000   0.000000   0.000000
    12  H    0.000000   0.000000   0.000000   0.000000   0.000000
    13  H    0.900411   0.000000   0.000000   0.000000   0.000000
    14  C    0.000000   4.272577   0.000000   0.000000   0.000000
    15  H    0.000000   0.000000   0.909498   0.000000   0.000000
    16  H    0.000000   0.000000   0.000000   0.910410   0.000000
    17  H    0.000000   0.000000   0.000000   0.000000   0.909571
 Mulliken charges:
               1
     1  C   -0.280139
     2  H    0.096256
     3  H    0.091445
     4  H    0.089150
     5  C   -0.185947
     6  H    0.094181
     7  H    0.095917
     8  C   -0.199259
     9  H    0.097407
    10  H    0.099296
    11  C   -0.193258
    12  H    0.097420
    13  H    0.099589
    14  C   -0.272577
    15  H    0.090502
    16  H    0.089590
    17  H    0.090429
 Sum of Mulliken charges =   0.00000
 Mulliken charges with hydrogens summed into heavy atoms:
               1
     1  C   -0.003289
     5  C    0.004151
     8  C   -0.002556
    11  C    0.003751
    14  C   -0.002057
 Charge=              0.0000 electrons
 Dipole moment (field-independent basis, Debye):
    X=             -0.0216    Y=             -0.0161    Z=             -0.0099  Tot=              0.0287
 N-N= 1.248754379846D+02 E-N=-1.856828656516D+02  KE=-4.260464520097D+01
 Leave Link  601 at Fri Nov  3 15:08:06 2017, MaxMem=   134217728 cpu:               0.1 elap:               0.2
 (Enter /n/sw/g16_nehalem/g16/l701.exe)
 ... and contract with generalized density number  0.
 Compute integral first derivatives.
 Leave Link  701 at Fri Nov  3 15:08:07 2017, MaxMem=   134217728 cpu:               0.1 elap:               0.2
 (Enter /n/sw/g16_nehalem/g16/l702.exe)
 L702 exits ... SP integral derivatives will be done elsewhere.
 Leave Link  702 at Fri Nov  3 15:08:07 2017, MaxMem=   134217728 cpu:               0.1 elap:               0.1
 (Enter /n/sw/g16_nehalem/g16/l703.exe)
 Integral derivatives from FoFJK, PRISM(SPDF).
 Compute integral first derivatives, UseDBF=F ICtDFT=           0.
 Calling FoFJK, ICntrl=      2127 FMM=F ISym2X=0 I1Cent= 0 IOpClX= 0 NMat=1 NMatS=1 NMatT=0.
 FoFJK:  IHMeth=41 ICntrl=    2127 DoSepK=F KAlg= 0 I1Cent=           0 FoldK=F
 IRaf=         0 NMat=       1 IRICut=       1 DoRegI=T DoRafI=F ISym2E= 0 IDoP0=3 IntGTp=3.
 FoFCou: FMM=F IPFlag=           0 FMFlag=      100000 FMFlg1=         800
         NFxFlg=           0 DoJE=F BraDBF=F KetDBF=F FulRan=T
         wScrn=  0.000000 ICntrl=      2127 IOpCl=  0 I1Cent=           0 NGrid=           0
         NMat0=    1 NMatS0=      1 NMatT0=    0 NMatD0=    1 NMtDS0=    0 NMtDT0=    0
 Symmetry not used in FoFCou.
 Leave Link  703 at Fri Nov  3 15:08:07 2017, MaxMem=   134217728 cpu:               0.0 elap:               0.1
 (Enter /n/sw/g16_nehalem/g16/l716.exe)
 Dipole        =-8.50491495D-03-6.32682899D-03-3.89041659D-03
 ***** Axes restored to original set *****
 -------------------------------------------------------------------
 Center     Atomic                   Forces (Hartrees/Bohr)
 Number     Number              X              Y              Z
 -------------------------------------------------------------------
      1        6           0.008570597    0.018710884    0.028559900
      2        1           0.001016652   -0.017897549   -0.004363633
      3        1           0.004242119    0.005517391   -0.015931652
      4        1          -0.016089575   -0.001393910   -0.002610551
      5        6           0.023080932   -0.016275332   -0.031337359
      6        1          -0.008642746    0.021470610    0.002554434
      7        1          -0.010221861   -0.008689262    0.020527089
      8        6          -0.025040238   -0.033237877   -0.000214987
      9        1           0.009958398    0.014603713   -0.017727677
     10        1           0.007629856    0.015216096    0.018498508
     11        6           0.027412091    0.032044533    0.016852948
     12        1          -0.000295504   -0.011858903   -0.021578611
     13        1          -0.014412901   -0.017897196    0.011049540
     14        6          -0.031923741   -0.000160902   -0.015090128
     15        1           0.003159891    0.004604646    0.016525062
     16        1           0.008254104   -0.014064270    0.000462317
     17        1           0.013301927    0.009307328   -0.006175201
 -------------------------------------------------------------------
 Cartesian Forces:  Max     0.033237877 RMS     0.016270350
 Leave Link  716 at Fri Nov  3 15:08:07 2017, MaxMem=   134217728 cpu:               0.1 elap:               0.1
 (Enter /n/sw/g16_nehalem/g16/l103.exe)

 GradGradGradGradGradGradGradGradGradGradGradGradGradGradGradGradGradGrad
 Berny optimization.
 FormGI is forming the generalized inverse of G from B-inverse, IUseBI=4.
 Internal  Forces:  Max     0.025080484 RMS     0.008631747
 Search for a local minimum.
 Step number   1 out of a maximum of   92
 All quantities printed in internal units (Hartrees-Bohrs-Radians)
 RMS Force = .86317D-02 SwitMx=.10000D-02 MixMth= 1
 Mixed Optimization -- RFO/linear search
 Second derivative matrix not updated -- first step.
 ITU=  0
     Eigenvalues ---    0.00237   0.00237   0.00237   0.00237   0.03840
     Eigenvalues ---    0.03840   0.03840   0.04896   0.04896   0.04896
     Eigenvalues ---    0.05720   0.05720   0.05720   0.05720   0.07655
     Eigenvalues ---    0.07655   0.07655   0.11701   0.11701   0.11701
     Eigenvalues ---    0.16000   0.16000   0.16000   0.16000   0.16000
     Eigenvalues ---    0.16000   0.21948   0.21948   0.21948   0.28519
     Eigenvalues ---    0.28519   0.28519   0.28519   0.37230   0.37230
     Eigenvalues ---    0.37230   0.37230   0.37230   0.37230   0.37230
     Eigenvalues ---    0.37230   0.37230   0.37230   0.37230   0.37230
 RFO step:  Lambda=-1.89082621D-02 EMin= 2.36824163D-03
 Linear search not attempted -- first point.
 Iteration  1 RMS(Cart)=  0.08625216 RMS(Int)=  0.00269432
 Iteration  2 RMS(Cart)=  0.00308998 RMS(Int)=  0.00035400
 Iteration  3 RMS(Cart)=  0.00000855 RMS(Int)=  0.00035395
 Iteration  4 RMS(Cart)=  0.00000001 RMS(Int)=  0.00035395
 ITry= 1 IFail=0 DXMaxC= 3.68D-01 DCOld= 1.00D+10 DXMaxT= 3.00D-01 DXLimC= 3.00D+00 Rises=F
 Variable       Old X    -DE/DX   Delta X   Delta X   Delta X     New X
                                 (Linear)    (Quad)   (Total)
    R1        2.02201   0.01721   0.00000   0.04400   0.04400   2.06601
    R2        2.02201   0.01702   0.00000   0.04351   0.04351   2.06552
    R3        2.02201   0.01609   0.00000   0.04113   0.04113   2.06313
    R4        2.91018  -0.00619   0.00000  -0.02036  -0.02036   2.88982
    R5        2.02201   0.02312   0.00000   0.05910   0.05910   2.08110
    R6        2.02201   0.02427   0.00000   0.06204   0.06204   2.08404
    R7        2.91018  -0.00195   0.00000  -0.00642  -0.00642   2.90376
    R8        2.02201   0.02468   0.00000   0.06308   0.06308   2.08508
    R9        2.02201   0.02482   0.00000   0.06345   0.06345   2.08546
   R10        2.91018  -0.00004   0.00000  -0.00012  -0.00012   2.91006
   R11        2.02201   0.02433   0.00000   0.06218   0.06218   2.08419
   R12        2.02201   0.02508   0.00000   0.06411   0.06411   2.08612
   R13        2.91018  -0.00830   0.00000  -0.02729  -0.02729   2.88289
   R14        2.02201   0.01701   0.00000   0.04349   0.04349   2.06550
   R15        2.02201   0.01603   0.00000   0.04098   0.04098   2.06299
   R16        2.02201   0.01687   0.00000   0.04313   0.04313   2.06514
    A1        1.91063  -0.00448   0.00000  -0.01843  -0.01921   1.89142
    A2        1.91063  -0.00524   0.00000  -0.03196  -0.03211   1.87852
    A3        1.91063   0.00784   0.00000   0.04581   0.04532   1.95595
    A4        1.91063  -0.00318   0.00000  -0.02172  -0.02172   1.88891
    A5        1.91063   0.00329   0.00000   0.01971   0.01928   1.92992
    A6        1.91063   0.00177   0.00000   0.00659   0.00651   1.91714
    A7        1.91063  -0.00370   0.00000  -0.02189  -0.02144   1.88919
    A8        1.91063  -0.00252   0.00000   0.00529   0.00389   1.91452
    A9        1.91063   0.01203   0.00000   0.05959   0.05900   1.96963
   A10        1.91063   0.00023   0.00000  -0.02837  -0.02849   1.88214
   A11        1.91063  -0.00427   0.00000  -0.02576  -0.02533   1.88530
   A12        1.91063  -0.00177   0.00000   0.01114   0.00992   1.92056
   A13        1.91063  -0.00328   0.00000  -0.00564  -0.00692   1.90372
   A14        1.91063  -0.00485   0.00000  -0.02710  -0.02741   1.88323
   A15        1.91063   0.01296   0.00000   0.06465   0.06416   1.97479
   A16        1.91063   0.00010   0.00000  -0.03265  -0.03305   1.87758
   A17        1.91063  -0.00227   0.00000   0.00677   0.00613   1.91676
   A18        1.91063  -0.00266   0.00000  -0.00602  -0.00558   1.90506
   A19        1.91063   0.00126   0.00000   0.01255   0.01260   1.92324
   A20        1.91063   0.00170   0.00000   0.02018   0.02015   1.93078
   A21        1.91063   0.00032   0.00000   0.00747   0.00741   1.91804
   A22        1.91063  -0.00194   0.00000  -0.02783  -0.02800   1.88264
   A23        1.91063  -0.00089   0.00000  -0.01005  -0.01016   1.90048
   A24        1.91063  -0.00045   0.00000  -0.00232  -0.00257   1.90806
   A25        1.91063   0.00401   0.00000   0.02265   0.02241   1.93304
   A26        1.91063   0.00258   0.00000   0.01393   0.01376   1.92439
   A27        1.91063   0.00448   0.00000   0.02533   0.02507   1.93571
   A28        1.91063  -0.00338   0.00000  -0.01944  -0.01958   1.89105
   A29        1.91063  -0.00407   0.00000  -0.02173  -0.02205   1.88858
   A30        1.91063  -0.00362   0.00000  -0.02074  -0.02091   1.88972
    D1        3.13965   0.00230   0.00000   0.04554   0.04561  -3.09792
    D2       -1.04914  -0.00124   0.00000   0.00063   0.00065  -1.04849
    D3        1.04526   0.00242   0.00000   0.05401   0.05440   1.09966
    D4        1.04526   0.00096   0.00000   0.02799   0.02769   1.07295
    D5        3.13965  -0.00257   0.00000  -0.01692  -0.01727   3.12239
    D6       -1.04914   0.00108   0.00000   0.03646   0.03649  -1.01265
    D7       -1.04914   0.00176   0.00000   0.03849   0.03844  -1.01070
    D8        1.04526  -0.00177   0.00000  -0.00642  -0.00652   1.03874
    D9        3.13965   0.00188   0.00000   0.04696   0.04723  -3.09630
   D10        1.04682   0.00102   0.00000  -0.01471  -0.01517   1.03166
   D11        3.14122  -0.00384   0.00000  -0.07476  -0.07481   3.06641
   D12       -1.04757  -0.00213   0.00000  -0.05914  -0.05969  -1.10726
   D13       -1.04757   0.00080   0.00000  -0.00862  -0.00862  -1.05619
   D14        1.04682  -0.00406   0.00000  -0.06866  -0.06826   0.97857
   D15        3.14122  -0.00235   0.00000  -0.05304  -0.05314   3.08808
   D16        3.14122   0.00421   0.00000   0.03508   0.03522  -3.10674
   D17       -1.04757  -0.00064   0.00000  -0.02496  -0.02441  -1.07198
   D18        1.04682   0.00106   0.00000  -0.00934  -0.00930   1.03753
   D19        1.47744   0.00027   0.00000  -0.00750  -0.00738   1.47006
   D20       -0.61695   0.00083   0.00000   0.00654   0.00674  -0.61021
   D21       -2.71135   0.00015   0.00000  -0.00755  -0.00744  -2.71879
   D22       -0.61695  -0.00226   0.00000  -0.04432  -0.04462  -0.66158
   D23       -2.71135  -0.00170   0.00000  -0.03028  -0.03051  -2.74186
   D24        1.47744  -0.00238   0.00000  -0.04437  -0.04469   1.43276
   D25       -2.71135   0.00064   0.00000  -0.00479  -0.00467  -2.71602
   D26        1.47744   0.00120   0.00000   0.00925   0.00944   1.48688
   D27       -0.61695   0.00052   0.00000  -0.00484  -0.00473  -0.62169
   D28        1.11955   0.00023   0.00000  -0.00047  -0.00041   1.11913
   D29       -3.06924   0.00013   0.00000  -0.00187  -0.00187  -3.07111
   D30       -0.97485   0.00002   0.00000  -0.00323  -0.00327  -0.97812
   D31       -3.06924   0.00143   0.00000   0.01332   0.01330  -3.05595
   D32       -0.97485   0.00132   0.00000   0.01192   0.01184  -0.96301
   D33        1.11955   0.00122   0.00000   0.01056   0.01044   1.12999
   D34       -0.97485  -0.00177   0.00000  -0.02834  -0.02823  -1.00308
   D35        1.11955  -0.00187   0.00000  -0.02974  -0.02968   1.08986
   D36       -3.06924  -0.00198   0.00000  -0.03111  -0.03108  -3.10033
         Item               Value     Threshold  Converged?
 Maximum Force            0.025080     0.000450     NO 
 RMS     Force            0.008632     0.000300     NO 
 Maximum Displacement     0.368313     0.001800     NO 
 RMS     Displacement     0.086279     0.001200     NO 
 Predicted change in Energy=-1.035959D-02
 Lowest energy point so far.  Saving SCF results.
 GradGradGradGradGradGradGradGradGradGradGradGradGradGradGradGradGradGrad

 Leave Link  103 at Fri Nov  3 15:08:07 2017, MaxMem=   134217728 cpu:               0.0 elap:               0.1
 (Enter /n/sw/g16_nehalem/g16/l202.exe)
                          Input orientation:                          
 ---------------------------------------------------------------------
 Center     Atomic      Atomic             Coordinates (Angstroms)
 Number     Number       Type             X           Y           Z
 ---------------------------------------------------------------------
      1          6           0        0.080520   -1.015194   -0.023594
      2          1           0        0.323042   -2.079012   -0.092463
      3          1           0        0.452810   -0.518072   -0.923026
      4          1           0       -1.007353   -0.924317   -0.008672
      5          6           0        0.672513   -0.370985    1.230630
      6          1           0        0.353849    0.682764    1.260136
      7          1           0        0.272509   -0.870184    2.128978
      8          6           0        2.208646   -0.403768    1.249994
      9          1           0        2.591917    0.130461    0.363909
     10          1           0        2.548441    0.146886    2.143972
     11          6           0        2.783217   -1.832001    1.287680
     12          1           0        2.841204   -2.246089    0.267109
     13          1           0        2.135626   -2.496010    1.886320
     14          6           0        4.183387   -1.812507    1.893055
     15          1           0        4.149822   -1.488320    2.936348
     16          1           0        4.624626   -2.810410    1.857281
     17          1           0        4.836164   -1.129337    1.344033
 ---------------------------------------------------------------------
                    Distance matrix (angstroms):
                    1          2          3          4          5
     1  C    0.000000
     2  H    1.093283   0.000000
     3  H    1.093027   1.772909   0.000000
     4  H    1.091764   1.763601   1.770071   0.000000
     5  C    1.529228   2.188621   2.169824   2.159628   0.000000
     6  H    2.146096   3.075366   2.493590   2.458750   1.101273
     7  H    2.165976   2.529549   3.077534   2.492092   1.102829
     8  C    2.554366   2.857295   2.796075   3.492543   1.536604
     9  H    2.787436   3.199663   2.579258   3.769100   2.164894
    10  H    3.484165   3.861175   3.773634   4.292438   2.149765
    11  C    3.113067   2.831656   3.470508   4.107656   2.567663
    12  H    3.036608   2.549186   3.179133   4.078544   3.024501
    13  H    3.172389   2.715683   3.825772   3.992434   2.662022
    14  C    4.598127   4.349204   4.850059   5.599038   3.852665
    15  H    5.054139   4.915980   5.431762   5.965542   4.031078
    16  H    5.235398   4.779129   5.512618   6.225617   4.686436
    17  H    4.949705   4.830494   4.972624   6.001544   4.233668
                    6          7          8          9         10
     6  H    0.000000
     7  H    1.781333   0.000000
     8  C    2.149633   2.176874   0.000000
     9  H    2.473300   3.081626   1.103379   0.000000
    10  H    2.425813   2.492895   1.103575   1.780670   0.000000
    11  C    3.496659   2.817185   1.539936   2.177431   2.168951
    12  H    3.968780   3.458015   2.181820   2.391548   3.055267
    13  H    3.697491   2.484633   2.188086   3.069901   2.687323
    14  C    4.614361   4.029715   2.509517   2.940440   2.564221
    15  H    4.683237   4.008429   2.790736   3.415401   2.422020
    16  H    5.549629   4.772759   3.463768   3.874376   3.624685
    17  H    4.835483   4.637914   2.727480   2.753975   2.739037
                   11         12         13         14         15
    11  C    0.000000
    12  H    1.102904   0.000000
    13  H    1.103926   1.783857   0.000000
    14  C    1.525561   2.152475   2.158830   0.000000
    15  H    2.168831   3.067822   2.484951   1.093016   0.000000
    16  H    2.161601   2.455137   2.508946   1.091688   1.771368
    17  H    2.170600   2.527205   3.074862   1.092823   1.770706
                   16         17
    16  H    0.000000
    17  H    1.770361   0.000000
 Stoichiometry    C5H12
 Framework group  C1[X(C5H12)]
 Deg. of freedom    45
 Full point group                 C1      NOp   1
 RotChk:  IX=0 Diff= 1.72D-02
 Largest Abelian subgroup         C1      NOp   1
 Largest concise Abelian subgroup C1      NOp   1
                         Standard orientation:                         
 ---------------------------------------------------------------------
 Center     Atomic      Atomic             Coordinates (Angstroms)
 Number     Number       Type             X           Y           Z
 ---------------------------------------------------------------------
      1          6           0        2.137703   -0.618733    0.126779
      2          1           0        1.665892   -1.548012   -0.203528
      3          1           0        2.232023   -0.648264    1.215328
      4          1           0        3.141152   -0.586678   -0.302184
      5          6           0        1.346415    0.614504   -0.310861
      6          1           0        1.897804    1.510904    0.013545
      7          1           0        1.277013    0.640348   -1.411200
      8          6           0       -0.059381    0.671681    0.306895
      9          1           0        0.030113    0.681240    1.406597
     10          1           0       -0.525319    1.624521    0.002139
     11          6           0       -0.962027   -0.495681   -0.133443
     12          1           0       -0.778277   -1.379169    0.500658
     13          1           0       -0.749075   -0.778955   -1.178937
     14          6           0       -2.428402   -0.094027   -0.007920
     15          1           0       -2.665184    0.726055   -0.690623
     16          1           0       -3.074201   -0.940217   -0.250179
     17          1           0       -2.657787    0.231764    1.009678
 ---------------------------------------------------------------------
 Rotational constants (GHZ):          11.9866616           2.3145541           2.1286292
 Leave Link  202 at Fri Nov  3 15:08:07 2017, MaxMem=   134217728 cpu:               0.0 elap:               0.0
 (Enter /n/sw/g16_nehalem/g16/l301.exe)
 Standard basis: VSTO-6G (5D, 7F)
 Ernie: Thresh=  0.10000D-02 Tol=  0.10000D-05 Strict=F.
  NNHCO=     0 NNPyr=     0 NCTC=     0               EPep=         0.000000000
    EC=        92.205115641  ECS=         1.812083802   EG=         0.546349216
   EHC=         0.000000000  EAt=       -26.628119222  AtH=         2.358010613
 EPDDG=         0.003705043  ECC=        94.567253701 EAtT=        28.986129834
 There are    32 symmetry adapted cartesian basis functions of A   symmetry.
 There are    32 symmetry adapted basis functions of A   symmetry.
    32 basis functions,   192 primitive gaussians,    32 cartesian basis functions
    16 alpha electrons       16 beta electrons
       nuclear repulsion energy       123.5533835352 Hartrees.
 IExCor=    0 DFT=F Ex=HF Corr=None ExCW=0 ScaHFX=  1.000000
 ScaDFX=  1.000000  1.000000  1.000000  1.000000 ScalE2=  1.000000  1.000000
 IRadAn=      5 IRanWt=     -1 IRanGd=            0 ICorTp=0 IEmpDi=  4
 Integral buffers will be    131072 words long.
 Regular integral format.
 Two-electron integral symmetry is turned off.
 Leave Link  301 at Fri Nov  3 15:08:08 2017, MaxMem=   134217728 cpu:               0.1 elap:               0.1
 (Enter /n/sw/g16_nehalem/g16/l302.exe)
 Do NDO integrals.
 NPDir=0 NMtPBC=     1 NCelOv=     1 NCel=       1 NClECP=     1 NCelD=      1
         NCelK=      1 NCelE2=     1 NClLst=     1 CellRange=     0.0.
 One-electron integrals computed using PRISM.
 NBasis=    32 RedAO= F EigKep=  0.00D+00  NBF=    32
 NBsUse=    32 1.00D-04 EigRej=  0.00D+00 NBFU=    32
 Leave Link  302 at Fri Nov  3 15:08:08 2017, MaxMem=   134217728 cpu:               0.1 elap:               0.2
 (Enter /n/sw/g16_nehalem/g16/l303.exe)
 DipDrv:  MaxL=1.
 Leave Link  303 at Fri Nov  3 15:08:08 2017, MaxMem=   134217728 cpu:               0.1 elap:               0.1
 (Enter /n/sw/g16_nehalem/g16/l401.exe)
 Initial guess from the checkpoint file:  "/scratch/dhuang9_pentane_conformation_1/Gau-52205.chk"
 B after Tr=     0.000000    0.000000    0.000000
         Rot=    0.999988   -0.002580   -0.001243   -0.003940 Ang=  -0.56 deg.
 Guess basis will be translated and rotated to current coordinates.
 JPrj=0 DoOrth=T DoCkMO=T.
 Leave Link  401 at Fri Nov  3 15:08:08 2017, MaxMem=   134217728 cpu:               0.2 elap:               0.2
 (Enter /n/sw/g16_nehalem/g16/l502.exe)
 Keep J ints in memory in canonical form, NReq=861453.
 FoFCou: FMM=F IPFlag=           0 FMFlag=           0 FMFlg1=           0
         NFxFlg=           0 DoJE=F BraDBF=F KetDBF=F FulRan=T
         wScrn=  0.000000 ICntrl=       600 IOpCl=  2 I1Cent=           0 NGrid=           0
         NMat0=    1 NMatS0=     62 NMatT0=    0 NMatD0=    1 NMtDS0=    0 NMtDT0=    0
 Symmetry not used in FoFCou.
 Two-electron integral symmetry not used.
 Closed shell SCF:
 Using DIIS extrapolation, IDIIS=  1040.
 Overlap will be assumed to be unity.
 NGot=   134217728 LenX=   134153800 LenY=   134152335
 Requested convergence on RMS density matrix=1.00D-08 within 128 cycles.
 Requested convergence on MAX density matrix=1.00D-06.
 Requested convergence on             energy=1.00D-06.
 No special actions if energy rises.

 Cycle   1  Pass 1  IDiag  1:
 E=-0.419186786573675E-01
 DIIS: error= 1.06D-02 at cycle   1 NSaved=   1.
 NSaved= 1 IEnMin= 1 EnMin=-0.419186786573675E-01 IErMin= 1 ErrMin= 1.06D-02
 ErrMax= 1.06D-02  0.00D+00 EMaxC= 1.00D-01 BMatC= 2.38D-03 BMatP= 2.38D-03
 IDIUse=3 WtCom= 8.94D-01 WtEn= 1.06D-01
 Coeff-Com:  0.100D+01
 Coeff-En:   0.100D+01
 Coeff:      0.100D+01
 GapD=    2.000 DampG=2.000 DampE=0.500 DampFc=1.0000 IDamp=-1.
 RMSDP=2.73D-03 MaxDP=2.20D-02              OVMax= 0.00D+00

 Cycle   2  Pass 1  IDiag  3:
 E=-0.500078893736884E-01 Delta-E=       -0.008089210716 Rises=F Damp=F
 DIIS: error= 4.55D-03 at cycle   2 NSaved=   2.
 NSaved= 2 IEnMin= 2 EnMin=-0.500078893736884E-01 IErMin= 2 ErrMin= 4.55D-03
 ErrMax= 4.55D-03  0.00D+00 EMaxC= 1.00D-01 BMatC= 3.34D-04 BMatP= 2.38D-03
 IDIUse=3 WtCom= 9.55D-01 WtEn= 4.55D-02
 Coeff-Com: -0.515D+00 0.151D+01
 Coeff-En:   0.000D+00 0.100D+01
 Coeff:     -0.492D+00 0.149D+01
 Gap=     0.538 Goal=   None    Shift=    0.000
 RMSDP=1.68D-03 MaxDP=1.50D-02 DE=-8.09D-03 OVMax= 1.05D-02

 Cycle   3  Pass 1  IDiag  3:
 E=-0.515672481203495E-01 Delta-E=       -0.001559358747 Rises=F Damp=F
 DIIS: error= 7.14D-04 at cycle   3 NSaved=   3.
 NSaved= 3 IEnMin= 3 EnMin=-0.515672481203495E-01 IErMin= 3 ErrMin= 7.14D-04
 ErrMax= 7.14D-04  0.00D+00 EMaxC= 1.00D-01 BMatC= 8.21D-06 BMatP= 3.34D-04
 IDIUse=3 WtCom= 9.93D-01 WtEn= 7.14D-03
 Coeff-Com:  0.158D+00-0.572D+00 0.141D+01
 Coeff-En:   0.000D+00 0.000D+00 0.100D+01
 Coeff:      0.157D+00-0.568D+00 0.141D+01
 Gap=     0.538 Goal=   None    Shift=    0.000
 RMSDP=3.10D-04 MaxDP=2.95D-03 DE=-1.56D-03 OVMax= 2.10D-03

 Cycle   4  Pass 1  IDiag  3:
 E=-0.516092454345767E-01 Delta-E=       -0.000041997314 Rises=F Damp=F
 DIIS: error= 5.40D-05 at cycle   4 NSaved=   4.
 NSaved= 4 IEnMin= 4 EnMin=-0.516092454345767E-01 IErMin= 4 ErrMin= 5.40D-05
 ErrMax= 5.40D-05  0.00D+00 EMaxC= 1.00D-01 BMatC= 1.24D-07 BMatP= 8.21D-06
 IDIUse=1 WtCom= 1.00D+00 WtEn= 0.00D+00
 Coeff-Com: -0.543D-01 0.203D+00-0.564D+00 0.142D+01
 Coeff:     -0.543D-01 0.203D+00-0.564D+00 0.142D+01
 Gap=     0.538 Goal=   None    Shift=    0.000
 RMSDP=3.53D-05 MaxDP=2.77D-04 DE=-4.20D-05 OVMax= 1.67D-04

 Cycle   5  Pass 1  IDiag  3:
 E=-0.516098625497250E-01 Delta-E=       -0.000000617115 Rises=F Damp=F
 DIIS: error= 1.06D-05 at cycle   5 NSaved=   5.
 NSaved= 5 IEnMin= 5 EnMin=-0.516098625497250E-01 IErMin= 5 ErrMin= 1.06D-05
 ErrMax= 1.06D-05  0.00D+00 EMaxC= 1.00D-01 BMatC= 4.36D-09 BMatP= 1.24D-07
 IDIUse=1 WtCom= 1.00D+00 WtEn= 0.00D+00
 Coeff-Com:  0.200D-01-0.749D-01 0.214D+00-0.644D+00 0.149D+01
 Coeff:      0.200D-01-0.749D-01 0.214D+00-0.644D+00 0.149D+01
 Gap=     0.538 Goal=   None    Shift=    0.000
 RMSDP=7.28D-06 MaxDP=5.50D-05 DE=-6.17D-07 OVMax= 3.72D-05

 Cycle   6  Pass 1  IDiag  3:
 E=-0.516098863273129E-01 Delta-E=       -0.000000023778 Rises=F Damp=F
 DIIS: error= 1.67D-06 at cycle   6 NSaved=   6.
 NSaved= 6 IEnMin= 6 EnMin=-0.516098863273129E-01 IErMin= 6 ErrMin= 1.67D-06
 ErrMax= 1.67D-06  0.00D+00 EMaxC= 1.00D-01 BMatC= 1.42D-10 BMatP= 4.36D-09
 IDIUse=1 WtCom= 1.00D+00 WtEn= 0.00D+00
 Coeff-Com: -0.596D-02 0.223D-01-0.644D-01 0.205D+00-0.579D+00 0.142D+01
 Coeff:     -0.596D-02 0.223D-01-0.644D-01 0.205D+00-0.579D+00 0.142D+01
 Gap=     0.538 Goal=   None    Shift=    0.000
 RMSDP=1.27D-06 MaxDP=9.65D-06 DE=-2.38D-08 OVMax= 6.96D-06

 Cycle   7  Pass 1  IDiag  3:
 E=-0.516098871204633E-01 Delta-E=       -0.000000000793 Rises=F Damp=F
 DIIS: error= 4.37D-07 at cycle   7 NSaved=   7.
 NSaved= 7 IEnMin= 7 EnMin=-0.516098871204633E-01 IErMin= 7 ErrMin= 4.37D-07
 ErrMax= 4.37D-07  0.00D+00 EMaxC= 1.00D-01 BMatC= 1.02D-11 BMatP= 1.42D-10
 IDIUse=1 WtCom= 1.00D+00 WtEn= 0.00D+00
 Coeff-Com:  0.170D-02-0.637D-02 0.185D-01-0.608D-01 0.188D+00-0.637D+00
 Coeff-Com:  0.150D+01
 Coeff:      0.170D-02-0.637D-02 0.185D-01-0.608D-01 0.188D+00-0.637D+00
 Coeff:      0.150D+01
 Gap=     0.538 Goal=   None    Shift=    0.000
 RMSDP=3.62D-07 MaxDP=2.86D-06 DE=-7.93D-10 OVMax= 2.19D-06

 Cycle   8  Pass 1  IDiag  3:
 E=-0.516098871839290E-01 Delta-E=       -0.000000000063 Rises=F Damp=F
 DIIS: error= 1.43D-07 at cycle   8 NSaved=   8.
 NSaved= 8 IEnMin= 8 EnMin=-0.516098871839290E-01 IErMin= 8 ErrMin= 1.43D-07
 ErrMax= 1.43D-07  0.00D+00 EMaxC= 1.00D-01 BMatC= 9.20D-13 BMatP= 1.02D-11
 IDIUse=1 WtCom= 1.00D+00 WtEn= 0.00D+00
 Coeff-Com: -0.272D-03 0.101D-02-0.296D-02 0.106D-01-0.382D-01 0.180D+00
 Coeff-Com: -0.731D+00 0.158D+01
 Coeff:     -0.272D-03 0.101D-02-0.296D-02 0.106D-01-0.382D-01 0.180D+00
 Coeff:     -0.731D+00 0.158D+01
 Gap=     0.538 Goal=   None    Shift=    0.000
 RMSDP=1.30D-07 MaxDP=1.17D-06 DE=-6.35D-11 OVMax= 7.83D-07

 Cycle   9  Pass 1  IDiag  3:
 E=-0.516098871904376E-01 Delta-E=       -0.000000000007 Rises=F Damp=F
 DIIS: error= 2.51D-08 at cycle   9 NSaved=   9.
 NSaved= 9 IEnMin= 9 EnMin=-0.516098871904376E-01 IErMin= 9 ErrMin= 2.51D-08
 ErrMax= 2.51D-08  0.00D+00 EMaxC= 1.00D-01 BMatC= 3.47D-14 BMatP= 9.20D-13
 IDIUse=1 WtCom= 1.00D+00 WtEn= 0.00D+00
 Coeff-Com:  0.170D-04-0.591D-04 0.189D-03-0.995D-03 0.530D-02-0.388D-01
 Coeff-Com:  0.216D+00-0.635D+00 0.145D+01
 Coeff:      0.170D-04-0.591D-04 0.189D-03-0.995D-03 0.530D-02-0.388D-01
 Coeff:      0.216D+00-0.635D+00 0.145D+01
 Gap=     0.538 Goal=   None    Shift=    0.000
 RMSDP=2.32D-08 MaxDP=1.89D-07 DE=-6.51D-12 OVMax= 1.38D-07

 Cycle  10  Pass 1  IDiag  3:
 E=-0.516098871906223E-01 Delta-E=        0.000000000000 Rises=F Damp=F
 DIIS: error= 6.16D-09 at cycle  10 NSaved=  10.
 NSaved=10 IEnMin=10 EnMin=-0.516098871906223E-01 IErMin=10 ErrMin= 6.16D-09
 ErrMax= 6.16D-09  0.00D+00 EMaxC= 1.00D-01 BMatC= 1.57D-15 BMatP= 3.47D-14
 IDIUse=1 WtCom= 1.00D+00 WtEn= 0.00D+00
 Coeff-Com: -0.254D-05 0.760D-05-0.292D-04 0.242D-03-0.159D-02 0.134D-01
 Coeff-Com: -0.808D-01 0.256D+00-0.721D+00 0.153D+01
 Coeff:     -0.254D-05 0.760D-05-0.292D-04 0.242D-03-0.159D-02 0.134D-01
 Coeff:     -0.808D-01 0.256D+00-0.721D+00 0.153D+01
 Gap=     0.538 Goal=   None    Shift=    0.000
 RMSDP=4.76D-09 MaxDP=3.81D-08 DE=-1.85D-13 OVMax= 2.61D-08

 Cycle  11  Pass 2  IDiag  1:
 SCF Done:  E(RPDDG) = -0.516098871906E-01 A.U. after   11 cycles
            NFock= 10  Conv=0.48D-08     -V/T= 0.9988
 KE=-4.249302229793D+01 PE=-1.833709709427D+02 EE= 1.022589998182D+02
 Leave Link  502 at Fri Nov  3 15:08:08 2017, MaxMem=   134217728 cpu:               0.1 elap:               0.1
 (Enter /n/sw/g16_nehalem/g16/l701.exe)
 ... and contract with generalized density number  0.
 Compute integral first derivatives.
 Leave Link  701 at Fri Nov  3 15:08:08 2017, MaxMem=   134217728 cpu:               0.1 elap:               0.1
 (Enter /n/sw/g16_nehalem/g16/l702.exe)
 L702 exits ... SP integral derivatives will be done elsewhere.
 Leave Link  702 at Fri Nov  3 15:08:08 2017, MaxMem=   134217728 cpu:               0.0 elap:               0.1
 (Enter /n/sw/g16_nehalem/g16/l703.exe)
 Integral derivatives from FoFJK, PRISM(SPDF).
 Compute integral first derivatives, UseDBF=F ICtDFT=           0.
 Calling FoFJK, ICntrl=      2127 FMM=F ISym2X=0 I1Cent= 0 IOpClX= 0 NMat=1 NMatS=1 NMatT=0.
 FoFJK:  IHMeth=41 ICntrl=    2127 DoSepK=F KAlg= 0 I1Cent=           0 FoldK=F
 IRaf=         0 NMat=       1 IRICut=       1 DoRegI=T DoRafI=F ISym2E= 0 IDoP0=3 IntGTp=3.
 FoFCou: FMM=F IPFlag=           0 FMFlag=      100000 FMFlg1=         800
         NFxFlg=           0 DoJE=F BraDBF=F KetDBF=F FulRan=T
         wScrn=  0.000000 ICntrl=      2127 IOpCl=  0 I1Cent=           0 NGrid=           0
         NMat0=    1 NMatS0=      1 NMatT0=    0 NMatD0=    1 NMtDS0=    0 NMtDT0=    0
 Symmetry not used in FoFCou.
 Leave Link  703 at Fri Nov  3 15:08:08 2017, MaxMem=   134217728 cpu:               0.1 elap:               0.1
 (Enter /n/sw/g16_nehalem/g16/l716.exe)
 Dipole        =-2.34499062D-03 9.32533675D-03 1.68459976D-04
 ***** Axes restored to original set *****
 -------------------------------------------------------------------
 Center     Atomic                   Forces (Hartrees/Bohr)
 Number     Number              X              Y              Z
 -------------------------------------------------------------------
      1        6           0.007038393    0.005988332    0.010928993
      2        1           0.002178455   -0.001202866   -0.000308280
      3        1           0.000243341   -0.000865411   -0.002125529
      4        1          -0.001841298   -0.000414135   -0.001467174
      5        6           0.009848359   -0.008080984   -0.009882700
      6        1          -0.002096249    0.003274485    0.002678841
      7        1          -0.001035541   -0.000968252    0.002625896
      8        6          -0.009663826   -0.012687865   -0.001506103
      9        1           0.002501703    0.002276314   -0.001463723
     10        1           0.001237932    0.004285568    0.001932944
     11        6           0.001537463    0.013302409    0.003274667
     12        1          -0.003825383   -0.002572871   -0.002337948
     13        1          -0.002789971   -0.002429067   -0.000341816
     14        6          -0.009841042   -0.000299199   -0.004834331
     15        1           0.001889743    0.000726899    0.001559345
     16        1           0.002046786   -0.000848297    0.000854570
     17        1           0.002571134    0.000514942    0.000412347
 -------------------------------------------------------------------
 Cartesian Forces:  Max     0.013302409 RMS     0.004804552
 Leave Link  716 at Fri Nov  3 15:08:08 2017, MaxMem=   134217728 cpu:               0.1 elap:               0.1
 (Enter /n/sw/g16_nehalem/g16/l103.exe)

 GradGradGradGradGradGradGradGradGradGradGradGradGradGradGradGradGradGrad
 Berny optimization.
 Using GEDIIS/GDIIS optimizer.
 FormGI is forming the generalized inverse of G from B-inverse, IUseBI=4.
 Internal  Forces:  Max     0.014410340 RMS     0.003499020
 Search for a local minimum.
 Step number   2 out of a maximum of   92
 All quantities printed in internal units (Hartrees-Bohrs-Radians)
 RMS Force = .34990D-02 SwitMx=.10000D-02 MixMth= 1
 Mixed Optimization -- RFO/linear search
 Update second derivatives using D2CorX and points    1    2
 DE= -8.85D-03 DEPred=-1.04D-02 R= 8.54D-01
 TightC=F SS=  1.41D+00  RLast= 3.06D-01 DXNew= 5.0454D-01 9.1923D-01
 Trust test= 8.54D-01 RLast= 3.06D-01 DXMaxT set to 5.05D-01
 ITU=  1  0
 Use linear search instead of GDIIS.
     Eigenvalues ---    0.00235   0.00237   0.00237   0.00243   0.03427
     Eigenvalues ---    0.03567   0.03736   0.04724   0.04777   0.04917
     Eigenvalues ---    0.05401   0.05473   0.05534   0.05593   0.07865
     Eigenvalues ---    0.08256   0.08300   0.11800   0.12170   0.12193
     Eigenvalues ---    0.14856   0.16000   0.16000   0.16000   0.16000
     Eigenvalues ---    0.16128   0.21891   0.21957   0.22865   0.25262
     Eigenvalues ---    0.28519   0.28519   0.28717   0.37162   0.37230
     Eigenvalues ---    0.37230   0.37230   0.37230   0.37230   0.37230
     Eigenvalues ---    0.37230   0.37230   0.37230   0.37230   0.42698
 RFO step:  Lambda=-5.21087248D-03 EMin= 2.35410223D-03
 Quartic linear search produced a step of  0.03647.
 Iteration  1 RMS(Cart)=  0.08781328 RMS(Int)=  0.00266317
 Iteration  2 RMS(Cart)=  0.00357311 RMS(Int)=  0.00012264
 Iteration  3 RMS(Cart)=  0.00000485 RMS(Int)=  0.00012259
 Iteration  4 RMS(Cart)=  0.00000000 RMS(Int)=  0.00012259
 ITry= 1 IFail=0 DXMaxC= 3.23D-01 DCOld= 1.00D+10 DXMaxT= 5.05D-01 DXLimC= 3.00D+00 Rises=F
 Variable       Old X    -DE/DX   Delta X   Delta X   Delta X     New X
                                 (Linear)    (Quad)   (Total)
    R1        2.06601   0.00167   0.00160   0.01487   0.01647   2.08248
    R2        2.06552   0.00144   0.00159   0.01411   0.01570   2.08122
    R3        2.06313   0.00178   0.00150   0.01448   0.01598   2.07912
    R4        2.88982  -0.01019  -0.00074  -0.04082  -0.04157   2.84826
    R5        2.08110   0.00381   0.00216   0.02422   0.02638   2.10748
    R6        2.08404   0.00295   0.00226   0.02258   0.02484   2.10888
    R7        2.90376  -0.01441  -0.00023  -0.05248  -0.05272   2.85105
    R8        2.08508   0.00315   0.00230   0.02335   0.02565   2.11073
    R9        2.08546   0.00409   0.00231   0.02599   0.02830   2.11376
   R10        2.91006  -0.01096   0.00000  -0.03880  -0.03880   2.87126
   R11        2.08419   0.00293   0.00227   0.02254   0.02481   2.10900
   R12        2.08612   0.00291   0.00234   0.02295   0.02529   2.11141
   R13        2.88289  -0.00386  -0.00100  -0.02004  -0.02103   2.86186
   R14        2.06550   0.00165   0.00159   0.01467   0.01626   2.08176
   R15        2.06299   0.00157   0.00149   0.01389   0.01539   2.07838
   R16        2.06514   0.00165   0.00157   0.01460   0.01617   2.08131
    A1        1.89142  -0.00107  -0.00070  -0.02095  -0.02163   1.86979
    A2        1.87852   0.00011  -0.00117  -0.00346  -0.00465   1.87387
    A3        1.95595  -0.00211   0.00165  -0.00591  -0.00425   1.95170
    A4        1.88891  -0.00153  -0.00079  -0.00803  -0.00913   1.87979
    A5        1.92992   0.00197   0.00070   0.01474   0.01529   1.94521
    A6        1.91714   0.00254   0.00024   0.02249   0.02255   1.93970
    A7        1.88919   0.00387  -0.00078   0.02484   0.02427   1.91347
    A8        1.91452   0.00329   0.00014   0.00516   0.00499   1.91951
    A9        1.96963  -0.01077   0.00215  -0.03690  -0.03473   1.93490
   A10        1.88214  -0.00249  -0.00104  -0.01382  -0.01494   1.86720
   A11        1.88530   0.00374  -0.00092   0.02150   0.02085   1.90616
   A12        1.92056   0.00268   0.00036   0.00062   0.00077   1.92133
   A13        1.90372   0.00398  -0.00025   0.00730   0.00687   1.91059
   A14        1.88323   0.00373  -0.00100   0.01586   0.01522   1.89845
   A15        1.97479  -0.01245   0.00234  -0.04291  -0.04046   1.93433
   A16        1.87758  -0.00298  -0.00121  -0.01843  -0.01980   1.85778
   A17        1.91676   0.00327   0.00022   0.00690   0.00690   1.92366
   A18        1.90506   0.00482  -0.00020   0.03223   0.03220   1.93726
   A19        1.92324  -0.00070   0.00046  -0.00278  -0.00257   1.92067
   A20        1.93078  -0.00076   0.00073  -0.00343  -0.00292   1.92786
   A21        1.91804   0.00072   0.00027   0.01216   0.01228   1.93032
   A22        1.88264  -0.00142  -0.00102  -0.03549  -0.03659   1.84605
   A23        1.90048   0.00120  -0.00037   0.01569   0.01529   1.91577
   A24        1.90806   0.00097  -0.00009   0.01352   0.01341   1.92147
   A25        1.93304   0.00186   0.00082   0.01661   0.01728   1.95032
   A26        1.92439   0.00170   0.00050   0.01407   0.01443   1.93883
   A27        1.93571   0.00214   0.00091   0.01894   0.01969   1.95540
   A28        1.89105  -0.00180  -0.00071  -0.01546  -0.01630   1.87475
   A29        1.88858  -0.00218  -0.00080  -0.01941  -0.02038   1.86820
   A30        1.88972  -0.00196  -0.00076  -0.01684  -0.01775   1.87197
    D1       -3.09792  -0.00093   0.00166  -0.01475  -0.01317  -3.11109
    D2       -1.04849   0.00014   0.00002  -0.01419  -0.01418  -1.06266
    D3        1.09966  -0.00154   0.00198  -0.03547  -0.03342   1.06624
    D4        1.07295   0.00050   0.00101   0.00572   0.00674   1.07969
    D5        3.12239   0.00157  -0.00063   0.00628   0.00573   3.12812
    D6       -1.01265  -0.00011   0.00133  -0.01501  -0.01352  -1.02617
    D7       -1.01070  -0.00045   0.00140  -0.00782  -0.00657  -1.01726
    D8        1.03874   0.00062  -0.00024  -0.00726  -0.00758   1.03116
    D9       -3.09630  -0.00106   0.00172  -0.02855  -0.02682  -3.12312
   D10        1.03166  -0.00012  -0.00055  -0.01421  -0.01485   1.01681
   D11        3.06641   0.00052  -0.00273  -0.02346  -0.02627   3.04015
   D12       -1.10726   0.00129  -0.00218   0.00092  -0.00140  -1.10866
   D13       -1.05619  -0.00083  -0.00031  -0.03693  -0.03719  -1.09338
   D14        0.97857  -0.00019  -0.00249  -0.04618  -0.04860   0.92996
   D15        3.08808   0.00058  -0.00194  -0.02179  -0.02373   3.06435
   D16       -3.10674  -0.00150   0.00128  -0.03316  -0.03180  -3.13854
   D17       -1.07198  -0.00086  -0.00089  -0.04241  -0.04321  -1.11520
   D18        1.03753  -0.00009  -0.00034  -0.01802  -0.01834   1.01919
   D19        1.47006  -0.00238  -0.00027  -0.12137  -0.12147   1.34860
   D20       -0.61021   0.00031   0.00025  -0.07338  -0.07306  -0.68328
   D21       -2.71879  -0.00088  -0.00027  -0.09599  -0.09615  -2.81493
   D22       -0.66158  -0.00126  -0.00163  -0.10604  -0.10761  -0.76919
   D23       -2.74186   0.00143  -0.00111  -0.05805  -0.05920  -2.80106
   D24        1.43276   0.00024  -0.00163  -0.08067  -0.08229   1.35047
   D25       -2.71602  -0.00239  -0.00017  -0.10672  -0.10697  -2.82299
   D26        1.48688   0.00030   0.00034  -0.05873  -0.05856   1.42832
   D27       -0.62169  -0.00089  -0.00017  -0.08135  -0.08165  -0.70334
   D28        1.11913  -0.00026  -0.00002  -0.02214  -0.02215   1.09698
   D29       -3.07111  -0.00020  -0.00007  -0.02160  -0.02168  -3.09279
   D30       -0.97812  -0.00016  -0.00012  -0.02123  -0.02137  -0.99948
   D31       -3.05595   0.00007   0.00049  -0.00828  -0.00772  -3.06366
   D32       -0.96301   0.00013   0.00043  -0.00774  -0.00724  -0.97025
   D33        1.12999   0.00017   0.00038  -0.00738  -0.00693   1.12306
   D34       -1.00308  -0.00039  -0.00103  -0.03426  -0.03535  -1.03842
   D35        1.08986  -0.00034  -0.00108  -0.03372  -0.03487   1.05499
   D36       -3.10033  -0.00030  -0.00113  -0.03336  -0.03456  -3.13489
         Item               Value     Threshold  Converged?
 Maximum Force            0.014410     0.000450     NO 
 RMS     Force            0.003499     0.000300     NO 
 Maximum Displacement     0.323383     0.001800     NO 
 RMS     Displacement     0.089019     0.001200     NO 
 Predicted change in Energy=-2.838568D-03
 Lowest energy point so far.  Saving SCF results.
 GradGradGradGradGradGradGradGradGradGradGradGradGradGradGradGradGradGrad

 Leave Link  103 at Fri Nov  3 15:08:08 2017, MaxMem=   134217728 cpu:               0.0 elap:               0.0
 (Enter /n/sw/g16_nehalem/g16/l202.exe)
                          Input orientation:                          
 ---------------------------------------------------------------------
 Center     Atomic      Atomic             Coordinates (Angstroms)
 Number     Number       Type             X           Y           Z
 ---------------------------------------------------------------------
      1          6           0        0.176908   -1.021710   -0.022668
      2          1           0        0.492815   -2.074783   -0.097796
      3          1           0        0.559401   -0.503742   -0.916170
      4          1           0       -0.922129   -1.004354   -0.070685
      5          6           0        0.675816   -0.376100    1.244623
      6          1           0        0.309752    0.675967    1.298437
      7          1           0        0.263024   -0.910697    2.132995
      8          6           0        2.183774   -0.380178    1.292042
      9          1           0        2.585718    0.159755    0.400698
     10          1           0        2.517267    0.198161    2.189520
     11          6           0        2.719259   -1.801573    1.330486
     12          1           0        2.670077   -2.256560    0.312596
     13          1           0        2.076838   -2.443446    1.981388
     14          6           0        4.148553   -1.819139    1.830797
     15          1           0        4.223238   -1.449329    2.865798
     16          1           0        4.560830   -2.838651    1.814960
     17          1           0        4.809802   -1.189714    1.214667
 ---------------------------------------------------------------------
                    Distance matrix (angstroms):
                    1          2          3          4          5
     1  C    0.000000
     2  H    1.101999   0.000000
     3  H    1.101335   1.772665   0.000000
     4  H    1.100223   1.774434   1.777748   0.000000
     5  C    1.507232   2.172810   2.167689   2.162907   0.000000
     6  H    2.155243   3.090243   2.521611   2.493091   1.115233
     7  H    2.160237   2.526723   3.090447   2.503910   1.115974
     8  C    2.483452   2.768154   2.744095   3.448659   1.508708
     9  H    2.716148   3.101919   2.506058   3.725901   2.155707
    10  H    3.443710   3.807426   3.737809   4.287658   2.147917
    11  C    2.983749   2.659264   3.375917   3.982278   2.492991
    12  H    2.802347   2.223047   3.006193   3.823463   2.895148
    13  H    3.106011   2.639706   3.802750   3.908425   2.603767
    14  C    4.454793   4.141165   4.707240   5.476433   3.806029
    15  H    4.989878   4.805221   5.349872   5.941022   4.045273
    16  H    5.088901   4.559701   5.377946   6.081376   4.634951
    17  H    4.798221   4.598074   4.803845   5.877203   4.213395
                    6          7          8          9         10
     6  H    0.000000
     7  H    1.793369   0.000000
     8  C    2.151149   2.162853   0.000000
     9  H    2.500486   3.088953   1.116951   0.000000
    10  H    2.428055   2.512842   1.118553   1.790543   0.000000
    11  C    3.456148   2.733272   1.519404   2.174661   2.185790
    12  H    3.891367   3.304408   2.171777   2.419392   3.093841
    13  H    3.649624   2.379543   2.178006   3.087749   2.686147
    14  C    4.609269   4.001741   2.494238   2.898907   2.619022
[...]
   xxz       -0.109027D+02     -0.941910D-01     -0.349581D-01
   yxz        0.293205D+01      0.253307D-01      0.940123D-02
   yyz       -0.686768D+00     -0.593314D-02     -0.220203D-02
   zxz        0.356319D+01      0.307832D-01      0.114249D-01
   zyz       -0.956068D+01     -0.825968D-01     -0.306550D-01
   zzz        0.900298D+01      0.777787D-01      0.288668D-01

 ----------------------------------------------------------------------
 1\1\GINC-HOLY2A09307\Freq\RPDDG\ZDO\C5H12\ROOT\03-Nov-2017\0\\#P Geom=
 AllCheck Guess=TCheck SCRF=Check GenChk RPDDG/ZDO Freq\\pentane confor
 mation 1\\0,1\C,0.2013091719,-0.9181444607,-0.1441594922\H,0.475547804
 6,-1.96292573,-0.3336120156\H,0.6671692505,-0.3174037227,-0.9346870175
 \H,-0.8835865856,-0.8418164061,-0.2711217788\C,0.6273881095,-0.4567437
 487,1.2357927026\H,0.2260913386,0.5594598888,1.4250954285\H,0.17103599
 39,-1.1055181318,2.0126787906\C,2.1434160552,-0.4400844145,1.373980527
 1\H,2.6112440293,0.0619978182,0.4992847069\H,2.4324118094,0.1734647857
 ,2.2538172123\C,2.7010266866,-1.8485544547,1.5280560517\H,2.4707200486
 ,-2.4614783263,0.6320397715\H,2.2090079971,-2.3673646449,2.3769030966\
 C,4.2002668668,-1.7900939697,1.7439809907\H,4.4592232272,-1.2137293216
 ,2.6402699684\H,4.625774493,-2.7914352712,1.8646142005\H,4.7128951133,
 -1.3157227497,0.8987548667\\Version=ES64L-G16RevA.03\State=1-A\HF=-0.0
 548808\RMSD=1.203e-09\RMSF=4.723e-06\ZeroPoint=0.15449\Thermal=0.16135
 09\Dipole=0.004581,-0.0003284,-0.0093461\DipoleDeriv=-0.2361737,-0.002
 712,-0.0308675,0.0075975,-0.1812152,0.0098726,-0.0165732,0.006759,-0.1
 596086,0.0790577,-0.0056187,-0.0007987,0.0130883,0.0434677,0.0017513,0
 .0062683,-0.0227198,0.0489659,0.0671924,-0.0094843,0.0008511,-0.015299
 9,0.057362,-0.0067137,0.0131371,0.01095,0.0390013,0.042952,0.0034772,0
 .0008478,-0.0057489,0.0683158,-0.0093248,-0.0248741,-0.0080556,0.04428
 18,-0.0092887,0.0394929,0.0627355,0.0650471,-0.0911024,0.0384154,0.066
 1167,0.0157381,-0.0098319,0.0189931,0.0139196,-0.0173247,-0.0046962,0.
 036988,-0.0031809,-0.0122146,-0.015468,0.035704,0.0378505,-0.01344,-0.
 0022851,-0.0088327,0.0487796,-0.0048249,-0.0109347,0.0111523,0.0270201
 ,-0.0688004,-0.0378221,-0.0158372,-0.0578375,-0.0558186,-0.0200378,-0.
 022035,0.0020124,-0.1161774,0.03802,0.0026692,0.0105622,0.0087775,0.03
 79519,0.0207483,0.0068023,0.0009693,0.046424,0.0295031,0.005302,-0.016
 5856,0.0084856,0.0339905,-0.0147376,-0.0054196,-0.000204,0.0408709,-0.
 0193608,-0.0313454,0.0090379,-0.0545038,-0.0455601,-0.0176948,0.005249
 ,-0.0128838,-0.0787227,0.0436526,0.0037684,0.000229,0.0001472,0.035056
 ,-0.0176421,0.0006436,0.00381,0.046532,0.02877,0.0029395,0.0089012,0.0
 023585,0.0363417,0.0151477,0.003646,0.0005243,0.0414531,-0.1742093,0.0
 303195,-0.0022366,0.0613811,-0.201211,0.0126588,-0.0040336,0.0088081,-
 0.1751472,0.0453702,-0.0099079,-0.0143396,-0.0041771,0.0608834,-0.0138
 007,0.0070309,-0.0161889,0.0501523,0.0320122,0.0214489,-0.0073143,-0.0
 07734,0.0519285,-0.0001093,-0.0051411,0.0038745,0.0705141,0.0444612,-0
 .0130066,0.014423,-0.0080518,0.0638436,0.0094707,-0.0076672,0.0109213,
 0.048571\Polar=37.0191047,-0.634527,34.767201,0.8807985,-0.1235842,34.
 4113474\HyperPolar=-17.3517145,1.9339292,6.7361876,-10.1673535,-3.8798
 407,-0.7134496,5.1350162,9.4497393,10.2627967,0.9840588\PG=C01 [X(C5H1
 2)]\NImag=0\\0.54668216,0.00314258,0.52243473,0.00907630,0.00386449,0.
 52965377,-0.05651740,0.06208589,0.01008631,0.06196871,0.06210427,-0.27
 122134,-0.03838054,-0.07011416,0.29932630,0.00975881,-0.03643706,-0.04
 611110,-0.00641277,0.04455387,0.05108716,-0.08775529,-0.06159991,0.078
 24975,0.00526619,0.00244773,-0.00324575,0.09203604,-0.06179382,-0.1197
 3139,0.10129887,-0.01010243,-0.01833381,0.01610529,0.06970167,0.126827
 41,0.07717736,0.09942616,-0.16712228,-0.00028265,0.00211221,0.00218302
 ,-0.08346981,-0.11198333,0.18884569,-0.29360502,0.01922622,-0.02614951
 ,-0.00956414,0.00550874,-0.00013003,-0.01431344,-0.00152488,0.00258015
 ,0.32252783,0.02031233,-0.04103214,0.00221769,0.02434615,-0.00386931,0
 .00033134,-0.01448176,0.00288479,0.00070108,-0.02139482,0.03913508,-0.
 02339621,0.00187784,-0.04238536,0.00206579,-0.00060760,0.00252931,0.01
 652012,-0.00019455,0.00136701,0.03032369,0.00023559,0.04442276,-0.0901
 3736,-0.01511921,-0.04568859,0.00592598,0.00032032,0.00515715,0.007211
 45,0.00393263,0.00827914,-0.00467136,-0.00785511,-0.02412368,0.5340675
 0,-0.01531819,-0.09639803,-0.05562119,-0.00728169,-0.00547886,-0.02425
 622,0.00454132,0.00857287,0.01085098,-0.00103091,0.00368976,0.00065826
 ,-0.01205182,0.53405801,-0.04662621,-0.05548316,-0.24344071,-0.0008825
 4,-0.00668700,-0.00463824,-0.00466385,-0.00456907,-0.01995279,-0.00507
 968,-0.00160957,-0.00207505,-0.00349821,0.00226531,0.53398981,0.005336
 81,-0.00529622,-0.00121426,-0.00009744,-0.00005901,-0.00119475,0.00001
 448,0.00008518,0.00018104,-0.00042181,-0.00067789,-0.00062129,-0.06849
 069,0.07483020,0.01386830,0.07692554,0.00121993,-0.00452084,-0.0054863
 1,-0.00009617,0.00018180,-0.00053461,0.00009276,0.00012236,0.00006231,
 -0.00075317,-0.00075164,-0.00091391,0.07683077,-0.24026824,-0.03412316
 ,-0.08462705,0.25964746,0.00524054,-0.02221127,-0.00423458,-0.00117492
 ,-0.00041081,-0.00279197,0.00024688,0.00002810,0.00030577,-0.00076939,
 -0.00088948,-0.00064731,0.01327076,-0.03163135,-0.04546486,-0.01044620
 ,0.03901366,0.04690372,0.00574298,0.00345911,-0.00397673,0.00009052,0.
 00007420,0.00035675,-0.00023859,-0.00069734,-0.00097563,-0.00008595,0.
 00008473,-0.00012055,-0.07759103,-0.05508949,0.06433410,0.00446572,0.0
 0374415,-0.00320152,0.09022173,0.00254491,0.00868322,-0.00481183,0.000
 18355,0.00012795,-0.00014587,-0.00065403,-0.00036906,-0.00127634,0.000
 10253,0.00001164,0.00015043,-0.05624260,-0.12434615,0.09730295,-0.0066
 2919,-0.01804450,0.01481266,0.06027086,0.13043463,0.00609798,0.0113865
 3,-0.01839532,0.00039716,-0.00020685,-0.00023414,-0.00106478,-0.001185
 14,-0.00212597,-0.00021803,0.00020989,-0.00025550,0.06419905,0.0949655
 8,-0.15062271,-0.00007918,0.00171845,0.00236111,-0.07226495,-0.1059808
 4,0.16478808,-0.01963457,-0.00589437,-0.01751705,-0.00076192,-0.000814
 66,-0.00089236,-0.00072594,0.00024686,-0.00221443,0.00006621,-0.000225
 05,-0.00033448,-0.25759130,-0.00465228,-0.01113870,-0.01063990,0.00309
 554,-0.00054527,-0.01337827,-0.00263084,0.00222807,0.55228559,-0.01148
 171,0.00226820,-0.00325806,-0.00084223,-0.00057700,-0.00074098,0.00044
 021,0.00035828,0.00045766,-0.00014181,-0.00011761,-0.00120179,-0.00584
 080,-0.07669482,0.00033022,0.02210759,0.00336807,0.00068269,-0.0156771
 7,0.00407979,-0.00070394,0.00149977,0.52967733,-0.03360914,-0.00267512
 ,-0.00789062,-0.00073272,-0.00064738,-0.00037983,-0.00259345,0.0001301
 3,-0.00257356,-0.00051675,-0.00123907,-0.00303039,-0.01165912,-0.00021
 909,-0.07722582,0.00198384,-0.00004375,0.00392326,0.01589540,0.0000689
 1,0.00465412,0.01291933,0.00201675,0.52947211,-0.00407875,-0.00237028,
 -0.00152171,-0.00009990,-0.00007326,-0.00000302,-0.00137830,0.00001413
 ,-0.00143407,0.00006856,0.00004569,0.00017271,-0.01387067,-0.01008887,
 0.01950231,0.00046808,-0.00011694,-0.00012127,-0.00277115,0.00032961,-
 0.00066132,-0.07908729,-0.04121199,0.07472186,0.09144534,-0.00193910,-
 0.00056090,-0.00060674,-0.00007738,-0.00009261,-0.00001989,-0.00055613
 ,-0.00025695,-0.00038768,0.00003264,-0.00000651,-0.00001026,-0.0027681
 4,0.00318265,0.00105810,-0.00007642,-0.00001991,0.00002413,0.00017701,
 0.00016961,0.00028922,-0.04109154,-0.08407775,0.07860460,0.04682598,0.
 09296020,-0.00158852,-0.00086192,0.00049420,-0.00001088,-0.00003377,0.
 00000713,-0.00001826,0.00033925,-0.00093505,0.00000288,-0.00000811,-0.
 00002809,0.00204402,-0.00038496,0.00583590,-0.00020457,-0.00004469,-0.
 00003862,-0.00078676,0.00006055,-0.00007155,0.07613569,0.08080497,-0.1
 8718285,-0.08125221,-0.09134108,0.20151097,-0.00330087,0.00007942,0.00
 031523,0.00000551,0.00004879,0.00009082,0.00000868,0.00006217,0.000164
 21,-0.00003062,-0.00019975,-0.00055510,-0.00800642,-0.01185955,-0.0201
 4657,-0.00430436,0.00110488,-0.00188753,0.00042457,0.00028582,0.000028
 03,-0.05376394,-0.03079577,-0.04442853,0.00392666,0.00309739,0.0071570
 6,0.06282143,0.00031258,0.00032935,0.00014287,0.00005668,-0.00000323,0
 .00004001,0.00001685,-0.00000605,0.00001136,0.00000326,0.00003402,0.00
 005463,-0.00195515,0.00273976,-0.00170120,0.00084467,0.00010137,0.0003
 8244,0.00021397,-0.00000173,0.00004579,-0.03196501,-0.10722593,-0.0988
 1260,0.00097997,0.00550823,0.00542390,0.02953593,0.11879568,-0.0000906
 0,-0.00009085,0.00010432,0.00004886,0.00003724,0.00001288,0.00003718,-
 0.00002745,0.00002746,-0.00003586,-0.00000017,0.00005663,-0.00380612,-
 0.00143311,0.00156243,-0.00207088,0.00043084,-0.00054302,0.00010418,-0
 .00001302,-0.00001044,-0.04669374,-0.10103132,-0.19008372,-0.00231992,
 -0.00843739,-0.02051589,0.05289887,0.11247010,0.20342857,-0.00141740,0
 .00100855,-0.00127991,-0.00070210,0.00001393,-0.00039803,-0.00012584,0
 .00007551,-0.00003628,0.00003249,0.00009843,0.00011560,-0.02395399,0.0
 3232644,-0.00438882,-0.00303763,-0.00040606,-0.00053829,-0.00493961,0.
 00199680,0.00105792,-0.09312065,0.05455692,-0.00564133,0.00672988,-0.0
 0632954,0.00007451,0.00534287,-0.00250204,0.00104524,0.55051066,0.0004
 4483,-0.00002434,0.00035660,-0.00034148,0.00027198,-0.00001162,0.00003
 225,-0.00002010,0.00004493,-0.00000267,0.00000971,-0.00007453,0.015927
 44,-0.00251971,0.00205463,-0.00089833,-0.00001158,0.00009923,0.0018950
 2,0.00029825,-0.00057668,0.05443027,-0.23953580,0.01651173,0.00357320,
 -0.01268330,0.00475329,0.00500090,-0.01528415,-0.00146290,0.00523779,0
 .53133376,-0.00153167,0.00042511,-0.00059022,-0.00107205,0.00035501,-0
 .00051746,-0.00004805,0.00005226,-0.00004372,-0.00000812,0.00006799,0.
 00003641,-0.00322753,0.00369722,0.00222113,-0.00012588,-0.00004279,0.0
 0024707,0.00143314,-0.00075530,0.00038336,-0.00557085,0.01662471,-0.07
 898773,-0.00637275,0.01965936,0.00149277,0.00625313,-0.01814370,0.0058
 8206,0.00203389,0.00118376,0.51944527,-0.00112956,0.00122432,-0.000326
 27,-0.00557613,0.00055530,-0.00316261,0.00000825,0.00001877,-0.0000071
 3,0.00000350,-0.00004723,-0.00001587,-0.00137045,0.00155488,0.00061998
 ,0.00000974,-0.00006164,-0.00002540,-0.00007076,-0.00000096,0.00003778
 ,0.00510016,0.00527976,0.00679889,0.00013809,-0.00035208,-0.00003074,-
 0.00042800,0.00123359,-0.00051188,-0.04817645,-0.02380630,-0.03517531,
 0.05838020,0.00048709,-0.00032991,0.00033181,0.00213949,-0.00029694,0.
 00108078,0.00002748,-0.00003556,0.00003555,-0.00002072,-0.00000832,0.0
 0000560,0.00170123,-0.00134262,-0.00064553,-0.00008801,0.00002960,0.00
 001434,0.00002422,-0.00002679,-0.00003895,-0.00137544,-0.01560195,-0.0
 1851382,-0.00032951,-0.00005594,-0.00001851,0.00116806,-0.00236804,0.0
 0066267,-0.02522953,-0.10769136,-0.10125036,0.02301911,0.11938606,-0.0
 0031122,0.00067264,-0.00009711,-0.00212990,-0.00005413,-0.00113130,0.0
 0002252,0.00001736,-0.00000218,0.00000799,-0.00004037,-0.00000048,0.00
 055894,-0.00048682,0.00004418,-0.00002725,0.00001157,-0.00003416,0.000
 06010,-0.00004495,-0.00004585,0.00116153,-0.00168716,0.00588156,0.0000
 5460,-0.00003475,0.00020443,-0.00048071,0.00077157,0.00001302,-0.03774
 915,-0.10339532,-0.19662747,0.04467067,0.11439752,0.21156606,-0.000126
 89,-0.00001455,-0.00002657,0.00002027,-0.00002148,0.00000303,-0.000000
 60,-0.00000631,0.00002349,-0.00000582,0.00000979,-0.00002742,-0.001036
 74,0.00246558,-0.00167551,-0.00000245,-0.00004042,0.00000328,-0.002046
 28,0.00043201,0.00034256,0.00697169,0.00371401,-0.00648784,-0.00062075
 ,0.00132724,0.00019297,0.00007086,-0.00028151,0.00002449,-0.08346497,-
 0.04557795,0.07726539,0.00369431,0.00073051,-0.00104987,0.09349772,-0.
 00003207,0.00001685,-0.00000844,0.00000230,0.00000779,0.00001396,-0.00
 001357,-0.00001312,-0.00002204,0.00000396,-0.00000042,-0.00001425,0.00
 208955,-0.00186680,0.00156699,-0.00013416,0.00000245,-0.00000477,0.001
 61520,-0.00091003,0.00005657,-0.00696093,-0.01311261,0.01913210,0.0012
 7433,-0.00244621,-0.00012537,-0.00027239,0.00029673,-0.00002084,-0.045
 82818,-0.08796244,0.08013460,0.00334247,0.00563857,-0.00806215,0.04733
 930,0.09743170,-0.00008318,0.00002221,-0.00002265,-0.00000087,-0.00000
 646,-0.00003397,0.00001743,-0.00000410,0.00000276,-0.00000566,0.000009
 72,-0.00000405,-0.00140977,0.00122458,-0.00055943,0.00002209,-0.000028
 61,0.00000323,-0.00084382,0.00061962,-0.00038854,0.00012733,0.00480755
 ,0.00140180,0.00016530,-0.00005753,0.00026888,-0.00000917,-0.00005729,
 0.00016221,0.07971868,0.08264489,-0.18181232,0.00822302,0.00588251,-0.
 02032411,-0.08579591,-0.09398496,0.19449221,-0.00011989,0.00005166,-0.
 00003725,0.00003844,0.00001303,0.00004794,0.00000874,-0.00001516,0.000
 01975,-0.00000170,-0.00001467,-0.00001514,-0.00047757,0.00117297,-0.00
 018423,-0.00015371,0.00000062,-0.00004010,0.00010837,0.00001817,-0.000
 06922,-0.02657664,0.01680697,-0.00514504,-0.00118046,0.00190602,-0.001
 42586,-0.00223120,0.00303925,0.00096032,-0.27119513,-0.01331369,-0.027
 60358,-0.00703103,-0.00236908,-0.00428447,-0.01369357,-0.00257687,0.00
 048387,0.54180725,0.00004055,0.00011298,-0.00003758,0.00005035,-0.0000
 6031,0.00002526,-0.00000480,-0.00000398,-0.00004649,-0.00001033,0.0000
 2521,0.00004560,0.00101350,-0.00334958,0.00022648,0.00062579,0.0001730
 9,0.00010048,-0.00007830,-0.00011413,0.00002487,0.03400629,-0.00305540
 ,0.00527839,0.00194959,-0.00160938,0.00115808,0.00301094,-0.00244831,-
 0.00057283,-0.01220621,-0.07736032,-0.00155921,-0.01206812,0.00260949,
 -0.00212337,-0.01025185,0.00275551,-0.00108597,-0.01491706,0.54091740,
 -0.00016089,0.00008817,0.00005587,0.00012474,-0.00002662,0.00001231,0.
 00002564,-0.00001229,0.00002713,-0.00000327,0.00001626,0.00001112,-0.0
 0007676,0.00029099,0.00029365,-0.00005634,-0.00002177,0.00001352,-0.00
 002657,0.00000962,-0.00003440,-0.00619599,0.00266008,0.00210957,-0.001
 51821,0.00144462,-0.00067051,0.00112316,-0.00086722,0.00032518,-0.0277
 5353,-0.00173410,-0.08143324,-0.02064900,-0.00183285,0.00040401,0.0178
 4802,0.00118382,0.00673052,0.00347293,-0.00311877,0.52193366,-0.000007
 33,0.00002986,0.00001010,0.00002839,-0.00000758,0.00001605,0.00000233,
 -0.00000185,0.00000139,-0.00000267,0.00000718,0.00001136,0.00005184,-0
 .00009551,0.00002284,0.00002179,0.00001970,0.00000537,0.00000532,-0.00
 001735,-0.00001420,-0.00266534,0.00105212,-0.00197409,-0.00004238,-0.0
 0000847,-0.00005888,-0.00046329,0.00057363,0.00035683,-0.00735746,-0.0
 1399917,-0.02195794,-0.00323855,0.00023930,0.00002047,0.00033308,-0.00
 017657,0.00004836,-0.05225363,-0.02855069,-0.04416347,0.05904572,-0.00
 002239,-0.00001721,0.00000262,-0.00000157,0.00000562,-0.00000577,0.000
 00406,0.00000151,0.00000628,0.00000047,-0.00000118,-0.00000480,0.00000
 143,-0.00009351,-0.00000151,0.00001537,-0.00000209,0.00000235,-0.00002
 439,0.00001409,-0.00000446,0.00135084,0.00025980,0.00099580,0.00004006
 ,-0.00005138,0.00005184,-0.00026560,-0.00041447,-0.00048246,-0.0030233
 1,0.00308378,-0.00099442,0.00018277,0.00023551,-0.00008032,-0.00022296
 ,-0.00012526,-0.00002381,-0.02948284,-0.11078869,-0.11005796,0.0324679
 6,0.11621937,0.00004527,-0.00000107,-0.00000165,-0.00000432,-0.0000044
 2,-0.00000411,-0.00000572,0.00000053,-0.00000728,-0.00000072,0.0000032
 0,0.00000882,0.00003562,-0.00002501,-0.00001366,0.00001734,0.00000850,
 0.00000877,0.00001350,-0.00000486,0.00001540,-0.00168765,0.00086872,-0
 .00063817,-0.00005738,0.00003772,-0.00008709,-0.00057177,0.00030449,-0
 .00036848,-0.00520340,-0.00205996,0.00019437,0.00004377,-0.00015853,0.
 00029432,0.00002437,0.00002629,0.00016190,-0.04606566,-0.11040273,-0.2
 1170374,0.05401064,0.12358247,0.23133171,-0.00000147,-0.00001651,0.000
 01106,-0.00000501,0.00001290,-0.00000056,0.00000053,-0.00000107,0.0000
 0881,0.00000151,-0.00000583,-0.00000687,-0.00009968,0.00065150,-0.0000
 3590,-0.00012067,-0.00002870,-0.00002060,0.00002868,0.00001978,-0.0000
 1368,-0.00321014,-0.00088551,-0.00047026,-0.00000691,-0.00009973,0.000
 03367,-0.00000397,-0.00012949,-0.00000922,-0.01076624,0.02303806,-0.00
 342968,-0.00048824,0.00012411,-0.00052237,-0.00067145,0.00019018,0.000
 35764,-0.07526453,0.08675975,-0.01026876,0.00320875,-0.00218170,0.0004
 9822,0.08270709,-0.00000360,0.00000237,-0.00000121,0.00000910,0.000004
 81,0.00000631,0.00000168,-0.00000313,0.00000372,0.00000053,-0.00000024
 ,0.00000057,0.00000109,0.00020713,-0.00000150,-0.00003588,-0.00000331,
 -0.00000707,0.00002482,-0.00000153,-0.00000483,-0.00058906,-0.00005295
 ,-0.00007026,-0.00004262,0.00001058,-0.00001995,-0.00004555,0.00000845
 ,0.00001332,0.00296583,0.00489772,0.00034270,0.00023625,0.00002778,0.0
 0015349,0.00031569,0.00001335,-0.00008657,0.08967393,-0.25982538,0.025
 95163,0.00437187,-0.01557963,-0.00265459,-0.09945882,0.28307602,0.0000
 1925,-0.00000273,-0.00000615,-0.00001464,0.00000450,0.00000017,-0.0000
 0395,0.00000256,-0.00000071,0.00000086,-0.00000205,0.00000020,-0.00002
 199,0.00009073,0.00005882,-0.00001995,-0.00000418,-0.00000716,0.000002
 93,0.00000013,0.00000095,-0.00047402,-0.00012391,0.00027425,0.00001063
 ,-0.00001458,-0.00000295,-0.00000151,-0.00002438,-0.00001265,-0.002248
 53,0.00328680,0.00289384,-0.00052890,0.00009992,-0.00031535,0.00035181
 ,-0.00007496,-0.00001915,-0.01043372,0.02553367,-0.04273963,0.00550269
 ,-0.01984006,0.00220936,0.01262820,-0.02896321,0.03975518,0.00006995,0
 .00000346,-0.00001089,-0.00001999,-0.00000901,0.00000931,-0.00001871,0
 .00000601,-0.00001526,0.00000244,-0.00000220,0.00000730,0.00004044,-0.
 00007475,-0.00002729,0.00002647,0.00002180,0.00000365,0.00003383,-0.00
 000906,-0.00000320,-0.00326781,0.00141972,0.00093899,0.00035993,-0.000
 06778,-0.00026414,-0.00006793,0.00002281,0.00006214,-0.01435857,-0.011
 64027,0.01913799,0.00017497,-0.00024832,-0.00000188,-0.00291839,0.0001
 3748,-0.00101530,-0.09178366,-0.04936928,0.08827814,0.00333345,0.00116
 175,-0.00109214,0.00469171,0.00257476,-0.00476913,0.10370185,-0.000018
 11,-0.00001147,-0.00000306,-0.00001637,0.00000717,-0.00000481,0.000004
 22,0.00000597,0.00000374,0.00000102,-0.00000289,-0.00000694,0.00001468
 ,-0.00009197,0.00001720,0.00001339,-0.00000405,-0.00000541,-0.00001660
 ,-0.00000524,0.00000482,0.00156966,0.00004031,-0.00051726,-0.00079911,
 0.00002957,0.00024647,0.00004432,-0.00006164,-0.00004196,-0.00275538,0
 .00319746,0.00020301,-0.00031082,-0.00016951,-0.00001486,0.00008287,0.
 00027400,0.00012418,-0.04999311,-0.08797775,0.08602659,0.00409541,0.00
 725362,-0.00952073,-0.00798890,-0.01278201,0.02003171,0.05607284,0.090
 29837,-0.00001798,-0.00000006,-0.00001033,-0.00000455,0.00000274,0.000
 01024,-0.00000591,0.00000149,0.00000457,0.00000145,-0.00000395,-0.0000
 0594,-0.00003284,0.00001438,-0.00001277,-0.00001206,-0.00000159,-0.000
 00474,-0.00000357,0.00000813,-0.00001867,0.00069257,-0.00050622,0.0002
 7592,0.00063450,-0.00020776,-0.00028160,0.00005032,-0.00004084,-0.0000
 4037,0.00119160,-0.00162073,0.00721550,0.00003890,-0.00005219,0.000170
 42,-0.00101627,0.00020342,-0.00005939,0.09031935,0.08655435,-0.1953345
 3,0.00816237,0.00685418,-0.02140045,0.00124037,0.00533738,-0.00208914,
 -0.10123824,-0.09654274,0.21158124\\-0.00000105,-0.00000264,0.00000358
 ,0.00000305,-0.00000263,0.00000280,-0.00000535,0.00000017,-0.00000429,
 -0.00000151,0.00000543,-0.00000434,0.00000451,-0.00000068,-0.00000838,
 -0.00000059,0.00000032,0.00000414,-0.00000451,-0.00000302,0.00000342,-
 0.00000347,-0.00000014,0.00000537,0.00000438,-0.00000064,-0.00000324,0
 .00000094,-0.00000268,0.00000131,-0.00001550,-0.00000251,-0.00000352,0
 .00000269,0.00000380,0.00000002,-0.00000329,0.00000575,0.00000161,0.00
 001952,-0.00000006,-0.00000388,0.00000202,-0.00000188,0.00000370,-0.00
 000014,-0.00000068,0.00000321,-0.00000169,0.00000209,-0.00000151\\\@


 QED = W**5 (WHICH WAS WHAT WE WANTED)
 Job cpu time:       0 days  0 hours  0 minutes  1.8 seconds.
 Elapsed time:       0 days  0 hours  0 minutes  1.8 seconds.
 File lengths (MBytes):  RWF=     10 Int=      0 D2E=      0 Chk=      2 Scr=      1
 Normal termination of Gaussian 16 at Fri Nov  3 15:08:18 2017.
