 Entering Gaussian System, Link 0=g16
 Input=pentane_conformation_2.gjf
 Output=pentane_conformation_2.out
 Initial command:
 /n/sw/g16_nehalem/g16/l1.exe "/scratch/dhuang9_pentane_conformation_2/Gau-52197.inp" -scrdir="/scratch/dhuang9_pentane_conformation_2/"
 Entering Link 1 = /n/sw/g16_nehalem/g16/l1.exe PID=     52206.
  
 Copyright (c) 1988,1990,1992,1993,1995,1998,2003,2009,2016,
            Gaussian, Inc.  All Rights Reserved.
  
 This is part of the Gaussian(R) 16 program.  It is based on
 the Gaussian(R) 09 system (copyright 2009, Gaussian, Inc.),
 the Gaussian(R) 03 system (copyright 2003, Gaussian, Inc.),
 the Gaussian(R) 98 system (copyright 1998, Gaussian, Inc.),
 the Gaussian(R) 94 system (copyright 1995, Gaussian, Inc.),
 the Gaussian 92(TM) system (copyright 1992, Gaussian, Inc.),
 the Gaussian 90(TM) system (copyright 1990, Gaussian, Inc.),
 the Gaussian 88(TM) system (copyright 1988, Gaussian, Inc.),
 the Gaussian 86(TM) system (copyright 1986, Carnegie Mellon
 University), and the Gaussian 82(TM) system (copyright 1983,
 Carnegie Mellon University). Gaussian is a federally registered
 trademark of Gaussian, Inc.
  
 This software contains proprietary and confidential information,
 including trade secrets, belonging to Gaussian, Inc.
  
 This software is provided under written license and may be
 used, copied, transmitted, or stored only in accord with that
 written license.
  
 The following legend is applicable only to US Government
 contracts under FAR:
  
                    RESTRICTED RIGHTS LEGEND
  
 Use, reproduction and disclosure by the US Government is
 subject to restrictions as set forth in subparagraphs (a)
 and (c) of the Commercial Computer Software - Restricted
 Rights clause in FAR 52.227-19.
  
 Gaussian, Inc.
 340 Quinnipiac St., Bldg. 40, Wallingford CT 06492
  
  
 ---------------------------------------------------------------
 Warning -- This program may not be used in any manner that
 competes with the business of Gaussian, Inc. or will provide
 assistance to any competitor of Gaussian, Inc.  The licensee
 of this program is prohibited from giving any competitor of
 Gaussian, Inc. access to this program.  By using this program,
 the user acknowledges that Gaussian, Inc. is engaged in the
 business of creating and licensing software in the field of
 computational chemistry and represents and warrants to the
 licensee that it is not a competitor of Gaussian, Inc. and that
 it will not use this program in any manner prohibited above.
 ---------------------------------------------------------------
  

 Cite this work as:
 Gaussian 16, Revision A.03,
 M. J. Frisch, G. W. Trucks, H. B. Schlegel, G. E. Scuseria, 
 M. A. Robb, J. R. Cheeseman, G. Scalmani, V. Barone, 
 G. A. Petersson, H. Nakatsuji, X. Li, M. Caricato, A. V. Marenich, 
 J. Bloino, B. G. Janesko, R. Gomperts, B. Mennucci, H. P. Hratchian, 
 J. V. Ortiz, A. F. Izmaylov, J. L. Sonnenberg, D. Williams-Young, 
 F. Ding, F. Lipparini, F. Egidi, J. Goings, B. Peng, A. Petrone, 
 T. Henderson, D. Ranasinghe, V. G. Zakrzewski, J. Gao, N. Rega, 
 G. Zheng, W. Liang, M. Hada, M. Ehara, K. Toyota, R. Fukuda, 
 J. Hasegawa, M. Ishida, T. Nakajima, Y. Honda, O. Kitao, H. Nakai, 
 T. Vreven, K. Throssell, J. A. Montgomery, Jr., J. E. Peralta, 
 F. Ogliaro, M. J. Bearpark, J. J. Heyd, E. N. Brothers, K. N. Kudin, 
 V. N. Staroverov, T. A. Keith, R. Kobayashi, J. Normand, 
 K. Raghavachari, A. P. Rendell, J. C. Burant, S. S. Iyengar, 
 J. Tomasi, M. Cossi, J. M. Millam, M. Klene, C. Adamo, R. Cammi, 
 J. W. Ochterski, R. L. Martin, K. Morokuma, O. Farkas, 
 J. B. Foresman, and D. J. Fox, Gaussian, Inc., Wallingford CT, 2016.
 
 ******************************************
 Gaussian 16:  ES64L-G16RevA.03 25-Dec-2016
                 3-Nov-2017 
 ******************************************
 %mem=1GB
 ------------------------
 #p pddg opt freq=noraman
 ------------------------
 1/18=20,19=15,26=1,38=1/1,3;
 2/9=110,12=2,17=6,18=5,40=1/2;
 3/5=2,25=1,41=4000000,71=1/1,2,3;
 4/35=1/1;
 5/5=2,35=1,38=5/2;
 6/7=2,8=2,9=2,10=2,28=1/1;
 7//1,2,3,16;
 1/18=20,19=15,26=1/3(2);
 2/9=110/2;
 99//99;
 2/9=110/2;
 3/5=2,25=1,41=4000000,71=1,135=20/1,2,3;
 4/5=5,16=3,35=1/1;
 5/5=2,35=1,38=5/2;
 7//1,2,3,16;
 1/18=20,19=15,26=1/3(-5);
 2/9=110/2;
 6/7=2,8=2,9=2,10=2,19=2,28=1/1;
 99/9=1/99;
 Leave Link    1 at Fri Nov  3 15:08:03 2017, MaxMem=   134217728 cpu:               0.1 elap:               0.1
 (Enter /n/sw/g16_nehalem/g16/l101.exe)
 ----------------------
 pentane conformation 2
 ----------------------
 Symbolic Z-matrix:
 Charge =  0 Multiplicity = 1
 C                    -2.32258  -0.45161   0. 
 H                    -1.96593  -1.46042   0. 
 H                    -1.96591   0.05279  -0.87365 
 H                    -3.39258  -0.4516    0. 
 C                    -1.80924   0.27434   1.2574 
 H                    -2.16429   1.28372   1.25643 
 H                    -2.16751  -0.22893   2.13105 
 C                    -0.26924   0.27189   1.25881 
 H                     0.08903   0.77483   0.38498 
 H                     0.08582  -0.73749   1.26017 
 C                     0.2441    0.99831   2.51595 
 H                    -0.11424   0.49542   3.38979 
 H                    -0.11089   2.00771   2.51455 
 C                     1.7841    0.99575   2.51742 
 H                     2.14243   1.49864   1.64357 
 H                     2.14077   1.50048   3.39087 
 H                     2.13909  -0.01364   2.51882 
 
 ITRead=  0  0  0  0  0  0  0  0  0  0  0  0  0  0  0  0  0
 MicOpt= -1 -1 -1 -1 -1 -1 -1 -1 -1 -1 -1 -1 -1 -1 -1 -1 -1
 NAtoms=     17 NQM=       17 NQMF=       0 NMMI=      0 NMMIF=      0
                NMic=       0 NMicF=      0.
                    Isotopes and Nuclear Properties:
 (Nuclear quadrupole moments (NQMom) in fm**2, nuclear magnetic moments (NMagM)
  in nuclear magnetons)

  Atom         1           2           3           4           5           6           7           8           9          10
 IAtWgt=          12           1           1           1          12           1           1          12           1           1
 AtmWgt=  12.0000000   1.0078250   1.0078250   1.0078250  12.0000000   1.0078250   1.0078250  12.0000000   1.0078250   1.0078250
 NucSpn=           0           1           1           1           0           1           1           0           1           1
 AtZEff=   0.0000000   0.0000000   0.0000000   0.0000000   0.0000000   0.0000000   0.0000000   0.0000000   0.0000000   0.0000000
 NQMom=    0.0000000   0.0000000   0.0000000   0.0000000   0.0000000   0.0000000   0.0000000   0.0000000   0.0000000   0.0000000
 NMagM=    0.0000000   2.7928460   2.7928460   2.7928460   0.0000000   2.7928460   2.7928460   0.0000000   2.7928460   2.7928460
 AtZNuc=   6.0000000   1.0000000   1.0000000   1.0000000   6.0000000   1.0000000   1.0000000   6.0000000   1.0000000   1.0000000

  Atom        11          12          13          14          15          16          17
 IAtWgt=          12           1           1          12           1           1           1
 AtmWgt=  12.0000000   1.0078250   1.0078250  12.0000000   1.0078250   1.0078250   1.0078250
 NucSpn=           0           1           1           0           1           1           1
 AtZEff=   0.0000000   0.0000000   0.0000000   0.0000000   0.0000000   0.0000000   0.0000000
 NQMom=    0.0000000   0.0000000   0.0000000   0.0000000   0.0000000   0.0000000   0.0000000
 NMagM=    0.0000000   2.7928460   2.7928460   0.0000000   2.7928460   2.7928460   2.7928460
 AtZNuc=   6.0000000   1.0000000   1.0000000   6.0000000   1.0000000   1.0000000   1.0000000
 Leave Link  101 at Fri Nov  3 15:08:04 2017, MaxMem=   134217728 cpu:               0.6 elap:               0.9
 (Enter /n/sw/g16_nehalem/g16/l103.exe)

 GradGradGradGradGradGradGradGradGradGradGradGradGradGradGradGradGradGrad
 Berny optimization.
 Initialization pass.
                           ----------------------------
                           !    Initial Parameters    !
                           ! (Angstroms and Degrees)  !
 --------------------------                            --------------------------
 ! Name  Definition              Value          Derivative Info.                !
 --------------------------------------------------------------------------------
 ! R1    R(1,2)                  1.07           estimate D2E/DX2                !
 ! R2    R(1,3)                  1.07           estimate D2E/DX2                !
 ! R3    R(1,4)                  1.07           estimate D2E/DX2                !
 ! R4    R(1,5)                  1.54           estimate D2E/DX2                !
 ! R5    R(5,6)                  1.07           estimate D2E/DX2                !
 ! R6    R(5,7)                  1.07           estimate D2E/DX2                !
 ! R7    R(5,8)                  1.54           estimate D2E/DX2                !
 ! R8    R(8,9)                  1.07           estimate D2E/DX2                !
 ! R9    R(8,10)                 1.07           estimate D2E/DX2                !
 ! R10   R(8,11)                 1.54           estimate D2E/DX2                !
 ! R11   R(11,12)                1.07           estimate D2E/DX2                !
 ! R12   R(11,13)                1.07           estimate D2E/DX2                !
 ! R13   R(11,14)                1.54           estimate D2E/DX2                !
 ! R14   R(14,15)                1.07           estimate D2E/DX2                !
 ! R15   R(14,16)                1.07           estimate D2E/DX2                !
 ! R16   R(14,17)                1.07           estimate D2E/DX2                !
 ! A1    A(2,1,3)              109.4712         estimate D2E/DX2                !
 ! A2    A(2,1,4)              109.4712         estimate D2E/DX2                !
 ! A3    A(2,1,5)              109.4712         estimate D2E/DX2                !
 ! A4    A(3,1,4)              109.4712         estimate D2E/DX2                !
 ! A5    A(3,1,5)              109.4713         estimate D2E/DX2                !
 ! A6    A(4,1,5)              109.4712         estimate D2E/DX2                !
 ! A7    A(1,5,6)              109.4712         estimate D2E/DX2                !
 ! A8    A(1,5,7)              109.4712         estimate D2E/DX2                !
 ! A9    A(1,5,8)              109.4712         estimate D2E/DX2                !
 ! A10   A(6,5,7)              109.4713         estimate D2E/DX2                !
 ! A11   A(6,5,8)              109.4712         estimate D2E/DX2                !
 ! A12   A(7,5,8)              109.4712         estimate D2E/DX2                !
 ! A13   A(5,8,9)              109.4712         estimate D2E/DX2                !
 ! A14   A(5,8,10)             109.4712         estimate D2E/DX2                !
 ! A15   A(5,8,11)             109.4712         estimate D2E/DX2                !
 ! A16   A(9,8,10)             109.4712         estimate D2E/DX2                !
 ! A17   A(9,8,11)             109.4713         estimate D2E/DX2                !
 ! A18   A(10,8,11)            109.4712         estimate D2E/DX2                !
 ! A19   A(8,11,12)            109.4712         estimate D2E/DX2                !
 ! A20   A(8,11,13)            109.4712         estimate D2E/DX2                !
 ! A21   A(8,11,14)            109.4712         estimate D2E/DX2                !
 ! A22   A(12,11,13)           109.4712         estimate D2E/DX2                !
 ! A23   A(12,11,14)           109.4713         estimate D2E/DX2                !
 ! A24   A(13,11,14)           109.4712         estimate D2E/DX2                !
 ! A25   A(11,14,15)           109.4712         estimate D2E/DX2                !
 ! A26   A(11,14,16)           109.4712         estimate D2E/DX2                !
 ! A27   A(11,14,17)           109.4712         estimate D2E/DX2                !
 ! A28   A(15,14,16)           109.4713         estimate D2E/DX2                !
 ! A29   A(15,14,17)           109.4712         estimate D2E/DX2                !
 ! A30   A(16,14,17)           109.4712         estimate D2E/DX2                !
 ! D1    D(2,1,5,6)            179.8889         estimate D2E/DX2                !
 ! D2    D(2,1,5,7)            -60.1111         estimate D2E/DX2                !
 ! D3    D(2,1,5,8)             59.8889         estimate D2E/DX2                !
 ! D4    D(3,1,5,6)             59.8889         estimate D2E/DX2                !
 ! D5    D(3,1,5,7)            179.8889         estimate D2E/DX2                !
 ! D6    D(3,1,5,8)            -60.1111         estimate D2E/DX2                !
 ! D7    D(4,1,5,6)            -60.1111         estimate D2E/DX2                !
 ! D8    D(4,1,5,7)             59.8889         estimate D2E/DX2                !
 ! D9    D(4,1,5,8)            179.8889         estimate D2E/DX2                !
 ! D10   D(1,5,8,9)             59.9786         estimate D2E/DX2                !
 ! D11   D(1,5,8,10)           -60.0214         estimate D2E/DX2                !
 ! D12   D(1,5,8,11)           179.9786         estimate D2E/DX2                !
 ! D13   D(6,5,8,9)            -60.0214         estimate D2E/DX2                !
 ! D14   D(6,5,8,10)           179.9786         estimate D2E/DX2                !
 ! D15   D(6,5,8,11)            59.9786         estimate D2E/DX2                !
 ! D16   D(7,5,8,9)            179.9786         estimate D2E/DX2                !
 ! D17   D(7,5,8,10)            59.9786         estimate D2E/DX2                !
 ! D18   D(7,5,8,11)           -60.0214         estimate D2E/DX2                !
 ! D19   D(5,8,11,12)           59.9953         estimate D2E/DX2                !
 ! D20   D(5,8,11,13)          -60.0047         estimate D2E/DX2                !
 ! D21   D(5,8,11,14)          179.9953         estimate D2E/DX2                !
 ! D22   D(9,8,11,12)          179.9953         estimate D2E/DX2                !
 ! D23   D(9,8,11,13)           59.9953         estimate D2E/DX2                !
 ! D24   D(9,8,11,14)          -60.0047         estimate D2E/DX2                !
 ! D25   D(10,8,11,12)         -60.0047         estimate D2E/DX2                !
 ! D26   D(10,8,11,13)         179.9953         estimate D2E/DX2                !
 ! D27   D(10,8,11,14)          59.9953         estimate D2E/DX2                !
 ! D28   D(8,11,14,15)          59.9995         estimate D2E/DX2                !
 ! D29   D(8,11,14,16)         179.9995         estimate D2E/DX2                !
 ! D30   D(8,11,14,17)         -60.0005         estimate D2E/DX2                !
 ! D31   D(12,11,14,15)        179.9995         estimate D2E/DX2                !
 ! D32   D(12,11,14,16)        -60.0005         estimate D2E/DX2                !
 ! D33   D(12,11,14,17)         59.9995         estimate D2E/DX2                !
 ! D34   D(13,11,14,15)        -60.0005         estimate D2E/DX2                !
 ! D35   D(13,11,14,16)         59.9995         estimate D2E/DX2                !
 ! D36   D(13,11,14,17)        179.9995         estimate D2E/DX2                !
 --------------------------------------------------------------------------------
 Trust Radius=3.00D-01 FncErr=1.00D-07 GrdErr=1.00D-07 EigMax=2.50D+02 EigMin=1.00D-04
 Number of steps in this run=     92 maximum allowed number of steps=    102.
 GradGradGradGradGradGradGradGradGradGradGradGradGradGradGradGradGradGrad

 Leave Link  103 at Fri Nov  3 15:08:04 2017, MaxMem=   134217728 cpu:               0.0 elap:               0.0
 (Enter /n/sw/g16_nehalem/g16/l202.exe)
                          Input orientation:                          
 ---------------------------------------------------------------------
 Center     Atomic      Atomic             Coordinates (Angstroms)
 Number     Number       Type             X           Y           Z
 ---------------------------------------------------------------------
      1          6           0       -2.322581   -0.451613    0.000000
      2          1           0       -1.965926   -1.460423    0.000000
      3          1           0       -1.965908    0.052785   -0.873652
      4          1           0       -3.392581   -0.451600    0.000000
      5          6           0       -1.809238    0.274343    1.257405
      6          1           0       -2.164295    1.283716    1.256427
      7          1           0       -2.167508   -0.228925    2.131055
      8          6           0       -0.269241    0.271887    1.258814
      9          1           0        0.089027    0.774829    0.384975
     10          1           0        0.085815   -0.737486    1.260167
     11          6           0        0.244101    0.998312    2.515948
     12          1           0       -0.114235    0.495418    3.389785
     13          1           0       -0.110887    2.007709    2.514553
     14          6           0        1.784099    0.995753    2.517416
     15          1           0        2.142435    1.498639    1.643574
     16          1           0        2.140772    1.500484    3.390875
     17          1           0        2.139087   -0.013643    2.518820
 ---------------------------------------------------------------------
                    Distance matrix (angstroms):
                    1          2          3          4          5
     1  C    0.000000
     2  H    1.070000   0.000000
     3  H    1.070000   1.747302   0.000000
     4  H    1.070000   1.747303   1.747303   0.000000
     5  C    1.540000   2.148263   2.148263   2.148263   0.000000
     6  H    2.148263   3.024609   2.468154   2.469538   1.070000
     7  H    2.148263   2.469538   3.024610   2.468154   1.070000
     8  C    2.514810   2.732078   2.733878   3.444313   1.540000
     9  H    2.732804   3.060619   2.515601   3.711324   2.148263
    10  H    2.733151   2.514021   3.063867   3.710659   2.148263
    11  C    3.875582   4.154467   4.155423   4.653783   2.514809
    12  H    4.155033   4.329517   4.669208   4.809889   2.732939
    13  H    4.154856   4.668199   4.329290   4.810477   2.733016
    14  C    5.029619   5.141291   5.143061   5.935505   3.875581
    15  H    5.142099   5.323158   5.030447   6.094355   4.154966
    16  H    5.935506   6.093437   6.094820   6.776921   4.653783
    17  H    5.142251   5.028793   5.325810   6.093899   4.154922
                    6          7          8          9         10
     6  H    0.000000
     7  H    1.747303   0.000000
     8  C    2.148263   2.148263   0.000000
     9  H    2.468979   3.024610   1.070000   0.000000
    10  H    3.024610   2.468713   1.070000   1.747303   0.000000
    11  C    2.732804   2.733151   1.540000   2.148263   2.148263
    12  H    3.061923   2.514956   2.148263   3.024610   2.468875
    13  H    2.514663   3.062563   2.148263   2.468817   3.024610
    14  C    4.154856   4.155033   2.514809   2.733016   2.732939
    15  H    4.329433   4.668803   2.732973   2.514846   3.062179
    16  H    4.810036   4.810330   3.444314   3.711019   3.710966
    17  H    4.668605   4.329372   2.732981   3.062307   2.514772
                   11         12         13         14         15
    11  C    0.000000
    12  H    1.070000   0.000000
    13  H    1.070000   1.747303   0.000000
    14  C    1.540000   2.148263   2.148263   0.000000
    15  H    2.148263   3.024610   2.468849   1.070000   0.000000
    16  H    2.148263   2.468849   2.468843   1.070000   1.747303
    17  H    2.148263   2.468843   3.024610   1.070000   1.747303
                   16         17
    16  H    0.000000
    17  H    1.747303   0.000000
 Stoichiometry    C5H12
 Framework group  C1[X(C5H12)]
 Deg. of freedom    45
 Full point group                 C1      NOp   1
 Largest Abelian subgroup         C1      NOp   1
 Largest concise Abelian subgroup C1      NOp   1
                         Standard orientation:                         
 ---------------------------------------------------------------------
 Center     Atomic      Atomic             Coordinates (Angstroms)
 Number     Number       Type             X           Y           Z
 ---------------------------------------------------------------------
      1          6           0        2.514809   -0.338712    0.000126
      2          1           0        2.513926   -0.957987   -0.872455
      3          1           0        2.515695   -0.954965    0.874844
      4          1           0        3.388460    0.279051   -0.001827
      5          6           0        1.257405    0.550407   -0.000139
      6          1           0        1.257311    1.168300    0.873421
      7          1           0        1.257498    1.168043   -0.873882
      8          6           0        0.000000   -0.338712   -0.000144
      9          1           0        0.000095   -0.956615    0.873410
     10          1           0       -0.000095   -0.956339   -0.873893
     11          6           0       -1.257405    0.550407    0.000132
     12          1           0       -1.257457    1.168369   -0.873380
     13          1           0       -1.257352    1.167976    0.873922
     14          6           0       -2.514809   -0.338712    0.000008
     15          1           0       -2.514752   -0.956679    0.873516
     16          1           0       -3.388461    0.279053    0.000209
     17          1           0       -2.514867   -0.956274   -0.873786
 ---------------------------------------------------------------------
 Rotational constants (GHZ):          16.6902060           2.0020389           1.8904875
 Leave Link  202 at Fri Nov  3 15:08:04 2017, MaxMem=   134217728 cpu:               0.0 elap:               0.1
 (Enter /n/sw/g16_nehalem/g16/l301.exe)
 Standard basis: VSTO-6G (5D, 7F)
 Ernie: Thresh=  0.10000D-02 Tol=  0.10000D-05 Strict=F.
  NNHCO=     0 NNPyr=     0 NCTC=     0               EPep=         0.000000000
    EC=        91.560552764  ECS=         1.924855683   EG=         0.550669367
   EHC=         0.000000000  EAt=       -26.628119222  AtH=         2.358010613
 EPDDG=         0.003131380  ECC=        94.039209194 EAtT=        28.986129834
 There are    32 symmetry adapted cartesian basis functions of A   symmetry.
 There are    32 symmetry adapted basis functions of A   symmetry.
    32 basis functions,   192 primitive gaussians,    32 cartesian basis functions
    16 alpha electrons       16 beta electrons
       nuclear repulsion energy       123.0253390281 Hartrees.
 IExCor=    0 DFT=F Ex=HF Corr=None ExCW=0 ScaHFX=  1.000000
 ScaDFX=  1.000000  1.000000  1.000000  1.000000 ScalE2=  1.000000  1.000000
 IRadAn=      5 IRanWt=     -1 IRanGd=            0 ICorTp=0 IEmpDi=  4
 Integral buffers will be    131072 words long.
 Regular integral format.
 Two-electron integral symmetry is turned off.
 Leave Link  301 at Fri Nov  3 15:08:04 2017, MaxMem=   134217728 cpu:               0.2 elap:               0.2
 (Enter /n/sw/g16_nehalem/g16/l302.exe)
 Do NDO integrals.
 NPDir=0 NMtPBC=     1 NCelOv=     1 NCel=       1 NClECP=     1 NCelD=      1
         NCelK=      1 NCelE2=     1 NClLst=     1 CellRange=     0.0.
 One-electron integrals computed using PRISM.
 NBasis=    32 RedAO= F EigKep=  0.00D+00  NBF=    32
 NBsUse=    32 1.00D-04 EigRej=  0.00D+00 NBFU=    32
 Leave Link  302 at Fri Nov  3 15:08:05 2017, MaxMem=   134217728 cpu:               0.3 elap:               0.4
 (Enter /n/sw/g16_nehalem/g16/l303.exe)
 DipDrv:  MaxL=1.
 Leave Link  303 at Fri Nov  3 15:08:05 2017, MaxMem=   134217728 cpu:               0.1 elap:               0.1
 (Enter /n/sw/g16_nehalem/g16/l401.exe)
 Simple Huckel Guess.
 JPrj=0 DoOrth=F DoCkMO=F.
 Leave Link  401 at Fri Nov  3 15:08:05 2017, MaxMem=   134217728 cpu:               0.1 elap:               0.2
 (Enter /n/sw/g16_nehalem/g16/l502.exe)
 Keep J ints in memory in canonical form, NReq=861453.
 FoFCou: FMM=F IPFlag=           0 FMFlag=           0 FMFlg1=           0
         NFxFlg=           0 DoJE=F BraDBF=F KetDBF=F FulRan=T
         wScrn=  0.000000 ICntrl=       600 IOpCl=  2 I1Cent=           0 NGrid=           0
         NMat0=    1 NMatS0=     62 NMatT0=    0 NMatD0=    1 NMtDS0=    0 NMtDT0=    0
 Symmetry not used in FoFCou.
 Two-electron integral symmetry not used.
 Closed shell SCF:
 Using DIIS extrapolation, IDIIS=  1040.
 Overlap will be assumed to be unity.
 NGot=   134217728 LenX=   134153800 LenY=   134152335
 Requested convergence on RMS density matrix=1.00D-08 within 128 cycles.
 Requested convergence on MAX density matrix=1.00D-06.
 Requested convergence on             energy=1.00D-06.
 No special actions if energy rises.

 Cycle   1  Pass 1  IDiag  1:
 E= 0.123889146288974    
 DIIS: error= 3.19D-02 at cycle   1 NSaved=   1.
 NSaved= 1 IEnMin= 1 EnMin= 0.123889146288974     IErMin= 1 ErrMin= 3.19D-02
 ErrMax= 3.19D-02  0.00D+00 EMaxC= 1.00D-01 BMatC= 6.98D-02 BMatP= 6.98D-02
 IDIUse=3 WtCom= 6.81D-01 WtEn= 3.19D-01
 Coeff-Com:  0.100D+01
 Coeff-En:   0.100D+01
 Coeff:      0.100D+01
 GapD=    2.000 DampG=2.000 DampE=0.500 DampFc=1.0000 IDamp=-1.
 RMSDP=1.07D-02 MaxDP=1.02D-01              OVMax= 0.00D+00

 Cycle   2  Pass 1  IDiag  1:
 E=-0.334843529911382E-01 Delta-E=       -0.157373499280 Rises=F Damp=F
 DIIS: error= 8.31D-03 at cycle   2 NSaved=   2.
 NSaved= 2 IEnMin= 2 EnMin=-0.334843529911382E-01 IErMin= 2 ErrMin= 8.31D-03
 ErrMax= 8.31D-03  0.00D+00 EMaxC= 1.00D-01 BMatC= 4.42D-03 BMatP= 6.98D-02
 IDIUse=3 WtCom= 9.17D-01 WtEn= 8.31D-02
 Coeff-Com: -0.320D+00 0.132D+01
 Coeff-En:   0.000D+00 0.100D+01
 Coeff:     -0.293D+00 0.129D+01
 RMSDP=3.67D-03 MaxDP=3.36D-02 DE=-1.57D-01 OVMax= 0.00D+00

 Cycle   3  Pass 1  IDiag  3:
 E=-0.450484652271115E-01 Delta-E=       -0.011564112236 Rises=F Damp=F
 DIIS: error= 5.99D-04 at cycle   3 NSaved=   3.
 NSaved= 3 IEnMin= 3 EnMin=-0.450484652271115E-01 IErMin= 3 ErrMin= 5.99D-04
 ErrMax= 5.99D-04  0.00D+00 EMaxC= 1.00D-01 BMatC= 4.79D-05 BMatP= 4.42D-03
 IDIUse=3 WtCom= 9.94D-01 WtEn= 5.99D-03
 Coeff-Com:  0.113D+00-0.522D+00 0.141D+01
 Coeff-En:   0.000D+00 0.000D+00 0.100D+01
 Coeff:      0.113D+00-0.519D+00 0.141D+01
 Gap=     0.539 Goal=   None    Shift=    0.000
 RMSDP=5.81D-04 MaxDP=3.35D-03 DE=-1.16D-02 OVMax= 3.83D-03

 Cycle   4  Pass 1  IDiag  3:
 E=-0.452665555335727E-01 Delta-E=       -0.000218090306 Rises=F Damp=F
 DIIS: error= 2.19D-04 at cycle   4 NSaved=   4.
 NSaved= 4 IEnMin= 4 EnMin=-0.452665555335727E-01 IErMin= 4 ErrMin= 2.19D-04
 ErrMax= 2.19D-04  0.00D+00 EMaxC= 1.00D-01 BMatC= 3.46D-06 BMatP= 4.79D-05
 IDIUse=3 WtCom= 9.98D-01 WtEn= 2.19D-03
 Coeff-Com: -0.719D-01 0.337D+00-0.109D+01 0.183D+01
 Coeff-En:   0.000D+00 0.000D+00 0.000D+00 0.100D+01
 Coeff:     -0.717D-01 0.337D+00-0.109D+01 0.183D+01
 Gap=     0.540 Goal=   None    Shift=    0.000
 RMSDP=2.47D-04 MaxDP=1.77D-03 DE=-2.18D-04 OVMax= 1.72D-03

 Cycle   5  Pass 1  IDiag  3:
 E=-0.452879832027264E-01 Delta-E=       -0.000021427669 Rises=F Damp=F
 DIIS: error= 2.41D-05 at cycle   5 NSaved=   5.
 NSaved= 5 IEnMin= 5 EnMin=-0.452879832027264E-01 IErMin= 5 ErrMin= 2.41D-05
 ErrMax= 2.41D-05  0.00D+00 EMaxC= 1.00D-01 BMatC= 4.13D-08 BMatP= 3.46D-06
 IDIUse=1 WtCom= 1.00D+00 WtEn= 0.00D+00
 Coeff-Com:  0.149D-01-0.701D-01 0.228D+00-0.408D+00 0.124D+01
 Coeff:      0.149D-01-0.701D-01 0.228D+00-0.408D+00 0.124D+01
 Gap=     0.540 Goal=   None    Shift=    0.000
 RMSDP=1.66D-05 MaxDP=1.34D-04 DE=-2.14D-05 OVMax= 1.10D-04

 Cycle   6  Pass 1  IDiag  3:
 E=-0.452881818106050E-01 Delta-E=       -0.000000198608 Rises=F Damp=F
 DIIS: error= 8.44D-06 at cycle   6 NSaved=   6.
 NSaved= 6 IEnMin= 6 EnMin=-0.452881818106050E-01 IErMin= 6 ErrMin= 8.44D-06
 ErrMax= 8.44D-06  0.00D+00 EMaxC= 1.00D-01 BMatC= 6.25D-09 BMatP= 4.13D-08
 IDIUse=1 WtCom= 1.00D+00 WtEn= 0.00D+00
 Coeff-Com: -0.522D-02 0.243D-01-0.763D-01 0.131D+00-0.684D+00 0.161D+01
 Coeff:     -0.522D-02 0.243D-01-0.763D-01 0.131D+00-0.684D+00 0.161D+01
 Gap=     0.540 Goal=   None    Shift=    0.000
 RMSDP=9.40D-06 MaxDP=7.22D-05 DE=-1.99D-07 OVMax= 7.22D-05

 Cycle   7  Pass 1  IDiag  3:
 E=-0.452882221179181E-01 Delta-E=       -0.000000040307 Rises=F Damp=F
 DIIS: error= 3.19D-06 at cycle   7 NSaved=   7.
 NSaved= 7 IEnMin= 7 EnMin=-0.452882221179181E-01 IErMin= 7 ErrMin= 3.19D-06
 ErrMax= 3.19D-06  0.00D+00 EMaxC= 1.00D-01 BMatC= 4.88D-10 BMatP= 6.25D-09
 IDIUse=1 WtCom= 1.00D+00 WtEn= 0.00D+00
 Coeff-Com:  0.826D-03-0.377D-02 0.104D-01-0.132D-01 0.189D+00-0.777D+00
 Coeff-Com:  0.159D+01
 Coeff:      0.826D-03-0.377D-02 0.104D-01-0.132D-01 0.189D+00-0.777D+00
 Coeff:      0.159D+01
 Gap=     0.540 Goal=   None    Shift=    0.000
 RMSDP=3.20D-06 MaxDP=2.67D-05 DE=-4.03D-08 OVMax= 2.55D-05

 Cycle   8  Pass 1  IDiag  3:
 E=-0.452882254343621E-01 Delta-E=       -0.000000003316 Rises=F Damp=F
 DIIS: error= 3.40D-07 at cycle   8 NSaved=   8.
 NSaved= 8 IEnMin= 8 EnMin=-0.452882254343621E-01 IErMin= 8 ErrMin= 3.40D-07
 ErrMax= 3.40D-07  0.00D+00 EMaxC= 1.00D-01 BMatC= 1.16D-11 BMatP= 4.88D-10
 IDIUse=1 WtCom= 1.00D+00 WtEn= 0.00D+00
 Coeff-Com:  0.135D-04-0.993D-04 0.941D-03-0.379D-02-0.358D-01 0.220D+00
 Coeff-Com: -0.580D+00 0.140D+01
 Coeff:      0.135D-04-0.993D-04 0.941D-03-0.379D-02-0.358D-01 0.220D+00
 Coeff:     -0.580D+00 0.140D+01
 Gap=     0.540 Goal=   None    Shift=    0.000
 RMSDP=3.66D-07 MaxDP=2.87D-06 DE=-3.32D-09 OVMax= 2.85D-06

 Cycle   9  Pass 1  IDiag  3:
 E=-0.452882254980125E-01 Delta-E=       -0.000000000064 Rises=F Damp=F
 DIIS: error= 1.82D-07 at cycle   9 NSaved=   9.
 NSaved= 9 IEnMin= 9 EnMin=-0.452882254980125E-01 IErMin= 9 ErrMin= 1.82D-07
 ErrMax= 1.82D-07  0.00D+00 EMaxC= 1.00D-01 BMatC= 9.47D-13 BMatP= 1.16D-11
 IDIUse=1 WtCom= 1.00D+00 WtEn= 0.00D+00
 Coeff-Com: -0.136D-04 0.840D-04-0.622D-03 0.234D-02 0.182D-01-0.118D+00
 Coeff-Com:  0.322D+00-0.924D+00 0.170D+01
 Coeff:     -0.136D-04 0.840D-04-0.622D-03 0.234D-02 0.182D-01-0.118D+00
 Coeff:      0.322D+00-0.924D+00 0.170D+01
 Gap=     0.540 Goal=   None    Shift=    0.000
 RMSDP=1.19D-07 MaxDP=1.31D-06 DE=-6.37D-11 OVMax= 1.15D-06

 Cycle  10  Pass 1  IDiag  3:
 E=-0.452882255041800E-01 Delta-E=       -0.000000000006 Rises=F Damp=F
 DIIS: error= 4.63D-08 at cycle  10 NSaved=  10.
 NSaved=10 IEnMin=10 EnMin=-0.452882255041800E-01 IErMin=10 ErrMin= 4.63D-08
 ErrMax= 4.63D-08  0.00D+00 EMaxC= 1.00D-01 BMatC= 5.31D-14 BMatP= 9.47D-13
 IDIUse=1 WtCom= 1.00D+00 WtEn= 0.00D+00
 Coeff-Com: -0.213D-05 0.190D-05 0.132D-03-0.723D-03-0.753D-02 0.465D-01
 Coeff-Com: -0.125D+00 0.368D+00-0.864D+00 0.158D+01
 Coeff:     -0.213D-05 0.190D-05 0.132D-03-0.723D-03-0.753D-02 0.465D-01
 Coeff:     -0.125D+00 0.368D+00-0.864D+00 0.158D+01
 Gap=     0.540 Goal=   None    Shift=    0.000
 RMSDP=3.18D-08 MaxDP=3.97D-07 DE=-6.17D-12 OVMax= 2.46D-07

 Cycle  11  Pass 1  IDiag  3:
 E=-0.452882255047200E-01 Delta-E=       -0.000000000001 Rises=F Damp=F
 DIIS: error= 4.05D-09 at cycle  11 NSaved=  11.
 NSaved=11 IEnMin=11 EnMin=-0.452882255047200E-01 IErMin=11 ErrMin= 4.05D-09
 ErrMax= 4.05D-09  0.00D+00 EMaxC= 1.00D-01 BMatC= 7.13D-16 BMatP= 5.31D-14
 IDIUse=1 WtCom= 1.00D+00 WtEn= 0.00D+00
 Coeff-Com: -0.131D-06 0.273D-05-0.450D-04 0.208D-03 0.191D-02-0.121D-01
 Coeff-Com:  0.328D-01-0.973D-01 0.239D+00-0.506D+00 0.134D+01
 Coeff:     -0.131D-06 0.273D-05-0.450D-04 0.208D-03 0.191D-02-0.121D-01
 Coeff:      0.328D-01-0.973D-01 0.239D+00-0.506D+00 0.134D+01
 Gap=     0.540 Goal=   None    Shift=    0.000
 RMSDP=2.73D-09 MaxDP=2.83D-08 DE=-5.40D-13 OVMax= 2.06D-08

 Cycle  12  Pass 2  IDiag  1:
 SCF Done:  E(RPDDG) = -0.452882255047E-01 A.U. after   12 cycles
            NFock= 11  Conv=0.27D-08     -V/T= 0.9989
 KE=-4.259274500665D+01 PE=-1.819856648093D+02 EE= 1.015077825624D+02
 Leave Link  502 at Fri Nov  3 15:08:06 2017, MaxMem=   134217728 cpu:               0.1 elap:               0.2
 (Enter /n/sw/g16_nehalem/g16/l601.exe)
 Copying SCF densities to generalized density rwf, IOpCl= 0 IROHF=0.

 **********************************************************************

            Population analysis using the SCF density.

 **********************************************************************

 Orbital symmetries:
       Occupied  (A) (A) (A) (A) (A) (A) (A) (A) (A) (A) (A) (A)
                 (A) (A) (A) (A)
       Virtual   (A) (A) (A) (A) (A) (A) (A) (A) (A) (A) (A) (A)
                 (A) (A) (A) (A)
 The electronic state is 1-A.
 Alpha  occ. eigenvalues --   -1.46335  -1.24338  -0.99190  -0.81012  -0.79444
 Alpha  occ. eigenvalues --   -0.62681  -0.56778  -0.55470  -0.53023  -0.50574
 Alpha  occ. eigenvalues --   -0.48070  -0.47263  -0.44767  -0.43639  -0.43555
 Alpha  occ. eigenvalues --   -0.42002
 Alpha virt. eigenvalues --    0.11983   0.14326   0.14924   0.14943   0.16103
 Alpha virt. eigenvalues --    0.16194   0.16645   0.16877   0.17443   0.17934
 Alpha virt. eigenvalues --    0.18868   0.18928   0.19609   0.19929   0.19938
 Alpha virt. eigenvalues --    0.20824
          Condensed to atoms (all electrons):
               1          2          3          4          5          6
     1  C    4.271682   0.000000   0.000000   0.000000   0.000000   0.000000
     2  H    0.000000   0.909342   0.000000   0.000000   0.000000   0.000000
     3  H    0.000000   0.000000   0.909360   0.000000   0.000000   0.000000
     4  H    0.000000   0.000000   0.000000   0.909988   0.000000   0.000000
     5  C    0.000000   0.000000   0.000000   0.000000   4.188511   0.000000
     6  H    0.000000   0.000000   0.000000   0.000000   0.000000   0.904640
     7  H    0.000000   0.000000   0.000000   0.000000   0.000000   0.000000
     8  C    0.000000   0.000000   0.000000   0.000000   0.000000   0.000000
     9  H    0.000000   0.000000   0.000000   0.000000   0.000000   0.000000
    10  H    0.000000   0.000000   0.000000   0.000000   0.000000   0.000000
    11  C    0.000000   0.000000   0.000000   0.000000   0.000000   0.000000
    12  H    0.000000   0.000000   0.000000   0.000000   0.000000   0.000000
    13  H    0.000000   0.000000   0.000000   0.000000   0.000000   0.000000
    14  C    0.000000   0.000000   0.000000   0.000000   0.000000   0.000000
    15  H    0.000000   0.000000   0.000000   0.000000   0.000000   0.000000
    16  H    0.000000   0.000000   0.000000   0.000000   0.000000   0.000000
    17  H    0.000000   0.000000   0.000000   0.000000   0.000000   0.000000
               7          8          9         10         11         12
     1  C    0.000000   0.000000   0.000000   0.000000   0.000000   0.000000
     2  H    0.000000   0.000000   0.000000   0.000000   0.000000   0.000000
     3  H    0.000000   0.000000   0.000000   0.000000   0.000000   0.000000
     4  H    0.000000   0.000000   0.000000   0.000000   0.000000   0.000000
     5  C    0.000000   0.000000   0.000000   0.000000   0.000000   0.000000
     6  H    0.000000   0.000000   0.000000   0.000000   0.000000   0.000000
     7  H    0.904645   0.000000   0.000000   0.000000   0.000000   0.000000
     8  C    0.000000   4.200782   0.000000   0.000000   0.000000   0.000000
     9  H    0.000000   0.000000   0.901440   0.000000   0.000000   0.000000
    10  H    0.000000   0.000000   0.000000   0.901441   0.000000   0.000000
    11  C    0.000000   0.000000   0.000000   0.000000   4.188510   0.000000
    12  H    0.000000   0.000000   0.000000   0.000000   0.000000   0.904643
    13  H    0.000000   0.000000   0.000000   0.000000   0.000000   0.000000
    14  C    0.000000   0.000000   0.000000   0.000000   0.000000   0.000000
    15  H    0.000000   0.000000   0.000000   0.000000   0.000000   0.000000
    16  H    0.000000   0.000000   0.000000   0.000000   0.000000   0.000000
    17  H    0.000000   0.000000   0.000000   0.000000   0.000000   0.000000
              13         14         15         16         17
     1  C    0.000000   0.000000   0.000000   0.000000   0.000000
     2  H    0.000000   0.000000   0.000000   0.000000   0.000000
     3  H    0.000000   0.000000   0.000000   0.000000   0.000000
     4  H    0.000000   0.000000   0.000000   0.000000   0.000000
     5  C    0.000000   0.000000   0.000000   0.000000   0.000000
     6  H    0.000000   0.000000   0.000000   0.000000   0.000000
     7  H    0.000000   0.000000   0.000000   0.000000   0.000000
     8  C    0.000000   0.000000   0.000000   0.000000   0.000000
     9  H    0.000000   0.000000   0.000000   0.000000   0.000000
    10  H    0.000000   0.000000   0.000000   0.000000   0.000000
    11  C    0.000000   0.000000   0.000000   0.000000   0.000000
    12  H    0.000000   0.000000   0.000000   0.000000   0.000000
    13  H    0.904642   0.000000   0.000000   0.000000   0.000000
    14  C    0.000000   4.271682   0.000000   0.000000   0.000000
    15  H    0.000000   0.000000   0.909351   0.000000   0.000000
    16  H    0.000000   0.000000   0.000000   0.909988   0.000000
    17  H    0.000000   0.000000   0.000000   0.000000   0.909352
 Mulliken charges:
               1
     1  C   -0.271682
     2  H    0.090658
     3  H    0.090640
     4  H    0.090012
     5  C   -0.188511
     6  H    0.095360
     7  H    0.095355
     8  C   -0.200782
     9  H    0.098560
    10  H    0.098559
    11  C   -0.188510
    12  H    0.095357
    13  H    0.095358
    14  C   -0.271682
    15  H    0.090649
    16  H    0.090012
    17  H    0.090648
 Sum of Mulliken charges =   0.00000
 Mulliken charges with hydrogens summed into heavy atoms:
               1
     1  C   -0.000373
     5  C    0.002205
     8  C   -0.003663
    11  C    0.002205
    14  C   -0.000373
 Charge=              0.0000 electrons
 Dipole moment (field-independent basis, Debye):
    X=              0.0000    Y=             -0.0206    Z=              0.0000  Tot=              0.0206
 N-N= 1.230253390281D+02 E-N=-1.819856648317D+02  KE=-4.259274500665D+01
 Leave Link  601 at Fri Nov  3 15:08:06 2017, MaxMem=   134217728 cpu:               0.1 elap:               0.2
 (Enter /n/sw/g16_nehalem/g16/l701.exe)
 ... and contract with generalized density number  0.
 Compute integral first derivatives.
 Leave Link  701 at Fri Nov  3 15:08:07 2017, MaxMem=   134217728 cpu:               0.2 elap:               0.2
 (Enter /n/sw/g16_nehalem/g16/l702.exe)
 L702 exits ... SP integral derivatives will be done elsewhere.
 Leave Link  702 at Fri Nov  3 15:08:07 2017, MaxMem=   134217728 cpu:               0.1 elap:               0.1
 (Enter /n/sw/g16_nehalem/g16/l703.exe)
 Integral derivatives from FoFJK, PRISM(SPDF).
 Compute integral first derivatives, UseDBF=F ICtDFT=           0.
 Calling FoFJK, ICntrl=      2127 FMM=F ISym2X=0 I1Cent= 0 IOpClX= 0 NMat=1 NMatS=1 NMatT=0.
 FoFJK:  IHMeth=41 ICntrl=    2127 DoSepK=F KAlg= 0 I1Cent=           0 FoldK=F
 IRaf=         0 NMat=       1 IRICut=       1 DoRegI=T DoRafI=F ISym2E= 0 IDoP0=3 IntGTp=3.
 FoFCou: FMM=F IPFlag=           0 FMFlag=      100000 FMFlg1=         800
         NFxFlg=           0 DoJE=F BraDBF=F KetDBF=F FulRan=T
         wScrn=  0.000000 ICntrl=      2127 IOpCl=  0 I1Cent=           0 NGrid=           0
         NMat0=    1 NMatS0=      1 NMatT0=    0 NMatD0=    1 NMtDS0=    0 NMtDT0=    0
 Symmetry not used in FoFCou.
 Leave Link  703 at Fri Nov  3 15:08:07 2017, MaxMem=   134217728 cpu:               0.1 elap:               0.1
 (Enter /n/sw/g16_nehalem/g16/l716.exe)
 Dipole        = 1.30072033D-08-8.12162850D-03-6.37995900D-06
 ***** Axes restored to original set *****
 -------------------------------------------------------------------
 Center     Atomic                   Forces (Hartrees/Bohr)
 Number     Number              X              Y              Z
 -------------------------------------------------------------------
      1        6           0.012086346    0.017033643    0.029499629
      2        1           0.004108825   -0.016594178   -0.003217276
      3        1           0.004120854    0.005503421   -0.015970581
      4        1          -0.016008656   -0.001448933   -0.002518114
      5        6           0.023267557   -0.017282572   -0.029802626
      6        1          -0.009485411    0.022163740    0.002753933
      7        1          -0.009543181   -0.008642154    0.020565784
      8        6          -0.024190732    0.017180253    0.029584798
      9        1           0.009988988    0.008836912   -0.021377134
     10        1           0.009920024   -0.022970838   -0.002974297
     11        6           0.024724478   -0.016782775   -0.028901658
     12        1          -0.009569302   -0.008639890    0.020555466
     13        1          -0.009501925    0.022158688    0.002730895
     14        6          -0.036144846    0.000040189   -0.000069260
     15        1           0.009100223    0.007232383   -0.012936057
     16        1           0.008075447    0.007061809    0.012232535
     17        1           0.009051311   -0.014849698   -0.000156036
 -------------------------------------------------------------------
 Cartesian Forces:  Max     0.036144846 RMS     0.016081353
 Leave Link  716 at Fri Nov  3 15:08:07 2017, MaxMem=   134217728 cpu:               0.1 elap:               0.1
 (Enter /n/sw/g16_nehalem/g16/l103.exe)

 GradGradGradGradGradGradGradGradGradGradGradGradGradGradGradGradGradGrad
 Berny optimization.
 FormGI is forming the generalized inverse of G from B-inverse, IUseBI=4.
 Internal  Forces:  Max     0.024957268 RMS     0.008388777
 Search for a local minimum.
 Step number   1 out of a maximum of   92
 All quantities printed in internal units (Hartrees-Bohrs-Radians)
 RMS Force = .83888D-02 SwitMx=.10000D-02 MixMth= 1
 Mixed Optimization -- RFO/linear search
 Second derivative matrix not updated -- first step.
 ITU=  0
     Eigenvalues ---    0.00237   0.00237   0.00237   0.00237   0.03840
     Eigenvalues ---    0.03840   0.03840   0.04896   0.04896   0.04896
     Eigenvalues ---    0.05720   0.05720   0.05720   0.05720   0.07655
     Eigenvalues ---    0.07655   0.07655   0.11701   0.11701   0.11701
     Eigenvalues ---    0.16000   0.16000   0.16000   0.16000   0.16000
     Eigenvalues ---    0.16000   0.21948   0.21948   0.21948   0.28519
     Eigenvalues ---    0.28519   0.28519   0.28519   0.37230   0.37230
     Eigenvalues ---    0.37230   0.37230   0.37230   0.37230   0.37230
     Eigenvalues ---    0.37230   0.37230   0.37230   0.37230   0.37230
 RFO step:  Lambda=-1.59344396D-02 EMin= 2.36824144D-03
 Linear search not attempted -- first point.
 Iteration  1 RMS(Cart)=  0.02303591 RMS(Int)=  0.00031430
 Iteration  2 RMS(Cart)=  0.00026073 RMS(Int)=  0.00007530
 Iteration  3 RMS(Cart)=  0.00000008 RMS(Int)=  0.00007530
 ITry= 1 IFail=0 DXMaxC= 6.84D-02 DCOld= 1.00D+10 DXMaxT= 3.00D-01 DXLimC= 3.00D+00 Rises=F
 Variable       Old X    -DE/DX   Delta X   Delta X   Delta X     New X
                                 (Linear)    (Quad)   (Total)
    R1        2.02201   0.01701   0.00000   0.04383   0.04383   2.06583
    R2        2.02201   0.01701   0.00000   0.04381   0.04381   2.06582
    R3        2.02201   0.01601   0.00000   0.04123   0.04123   2.06324
    R4        2.91018  -0.00992   0.00000  -0.03294  -0.03294   2.87724
    R5        2.02201   0.02405   0.00000   0.06195   0.06195   2.08396
    R6        2.02201   0.02405   0.00000   0.06195   0.06195   2.08396
    R7        2.91018  -0.00855   0.00000  -0.02838  -0.02838   2.88180
    R8        2.02201   0.02496   0.00000   0.06428   0.06428   2.08629
    R9        2.02201   0.02496   0.00000   0.06428   0.06428   2.08629
   R10        2.91018  -0.00855   0.00000  -0.02838  -0.02838   2.88180
   R11        2.02201   0.02405   0.00000   0.06195   0.06195   2.08396
   R12        2.02201   0.02405   0.00000   0.06195   0.06195   2.08396
   R13        2.91018  -0.00992   0.00000  -0.03294  -0.03294   2.87724
   R14        2.02201   0.01701   0.00000   0.04382   0.04382   2.06582
   R15        2.02201   0.01601   0.00000   0.04123   0.04123   2.06324
   R16        2.02201   0.01701   0.00000   0.04382   0.04382   2.06582
    A1        1.91063  -0.00376   0.00000  -0.02109  -0.02134   1.88930
    A2        1.91063  -0.00324   0.00000  -0.01857  -0.01873   1.89190
    A3        1.91063   0.00381   0.00000   0.02172   0.02150   1.93214
    A4        1.91063  -0.00324   0.00000  -0.01855  -0.01870   1.89193
    A5        1.91063   0.00380   0.00000   0.02166   0.02145   1.93208
    A6        1.91063   0.00263   0.00000   0.01483   0.01467   1.92530
    A7        1.91063   0.00101   0.00000   0.00698   0.00698   1.91761
    A8        1.91063   0.00101   0.00000   0.00698   0.00698   1.91761
    A9        1.91063  -0.00200   0.00000  -0.00373  -0.00374   1.90689
   A10        1.91063  -0.00202   0.00000  -0.02389  -0.02387   1.88677
   A11        1.91063   0.00100   0.00000   0.00681   0.00681   1.91744
   A12        1.91063   0.00100   0.00000   0.00684   0.00684   1.91747
   A13        1.91063   0.00119   0.00000   0.00786   0.00786   1.91850
   A14        1.91063   0.00119   0.00000   0.00785   0.00786   1.91849
   A15        1.91063  -0.00252   0.00000  -0.00569  -0.00570   1.90494
   A16        1.91063  -0.00225   0.00000  -0.02574  -0.02572   1.88491
   A17        1.91063   0.00119   0.00000   0.00786   0.00786   1.91849
   A18        1.91063   0.00119   0.00000   0.00786   0.00786   1.91850
   A19        1.91063   0.00100   0.00000   0.00683   0.00682   1.91746
   A20        1.91063   0.00100   0.00000   0.00683   0.00682   1.91746
   A21        1.91063  -0.00200   0.00000  -0.00373  -0.00374   1.90689
   A22        1.91063  -0.00202   0.00000  -0.02389  -0.02387   1.88677
   A23        1.91063   0.00101   0.00000   0.00698   0.00698   1.91761
   A24        1.91063   0.00101   0.00000   0.00698   0.00698   1.91761
   A25        1.91063   0.00380   0.00000   0.02169   0.02148   1.93211
   A26        1.91063   0.00263   0.00000   0.01483   0.01467   1.92530
   A27        1.91063   0.00380   0.00000   0.02169   0.02148   1.93211
   A28        1.91063  -0.00324   0.00000  -0.01856  -0.01872   1.89192
   A29        1.91063  -0.00376   0.00000  -0.02109  -0.02134   1.88930
   A30        1.91063  -0.00324   0.00000  -0.01856  -0.01872   1.89192
    D1        3.13965   0.00065   0.00000   0.01092   0.01095  -3.13259
    D2       -1.04914  -0.00059   0.00000  -0.00979  -0.00977  -1.05890
    D3        1.04526   0.00003   0.00000   0.00059   0.00061   1.04587
    D4        1.04526   0.00060   0.00000   0.01019   0.01017   1.05543
    D5        3.13965  -0.00064   0.00000  -0.01052  -0.01054   3.12911
    D6       -1.04914  -0.00002   0.00000  -0.00015  -0.00017  -1.04931
    D7       -1.04914   0.00062   0.00000   0.01055   0.01056  -1.03858
    D8        1.04526  -0.00062   0.00000  -0.01015  -0.01015   1.03510
    D9        3.13965   0.00000   0.00000   0.00022   0.00022   3.13987
   D10        1.04682  -0.00065   0.00000  -0.01089  -0.01090   1.03593
   D11       -1.04757   0.00065   0.00000   0.01101   0.01101  -1.03656
   D12        3.14122   0.00000   0.00000   0.00006   0.00006   3.14128
   D13       -1.04757  -0.00127   0.00000  -0.02133  -0.02134  -1.06891
   D14        3.14122   0.00002   0.00000   0.00057   0.00057  -3.14139
   D15        1.04682  -0.00063   0.00000  -0.01038  -0.01038   1.03644
   D16        3.14122  -0.00002   0.00000  -0.00043  -0.00043   3.14079
   D17        1.04682   0.00128   0.00000   0.02147   0.02148   1.06830
   D18       -1.04757   0.00063   0.00000   0.01052   0.01052  -1.03705
   D19        1.04712  -0.00063   0.00000  -0.01044  -0.01044   1.03667
   D20       -1.04728   0.00063   0.00000   0.01046   0.01046  -1.03682
   D21        3.14151   0.00000   0.00000   0.00001   0.00001   3.14152
   D22        3.14151   0.00002   0.00000   0.00052   0.00052  -3.14116
   D23        1.04712   0.00128   0.00000   0.02141   0.02142   1.06854
   D24       -1.04728   0.00065   0.00000   0.01097   0.01097  -1.03631
   D25       -1.04728  -0.00128   0.00000  -0.02138  -0.02139  -1.06867
   D26        3.14151  -0.00002   0.00000  -0.00049  -0.00049   3.14102
   D27        1.04712  -0.00065   0.00000  -0.01094  -0.01094   1.03618
   D28        1.04719   0.00003   0.00000   0.00037   0.00039   1.04758
   D29        3.14158   0.00000   0.00000   0.00000   0.00000   3.14158
   D30       -1.04721  -0.00003   0.00000  -0.00036  -0.00039  -1.04759
   D31        3.14158   0.00065   0.00000   0.01072   0.01075  -3.13085
   D32       -1.04721   0.00062   0.00000   0.01035   0.01036  -1.03685
   D33        1.04719   0.00059   0.00000   0.00999   0.00997   1.05716
   D34       -1.04721  -0.00059   0.00000  -0.00998  -0.00997  -1.05717
   D35        1.04719  -0.00062   0.00000  -0.01035  -0.01036   1.03683
   D36        3.14158  -0.00065   0.00000  -0.01072  -0.01074   3.13084
         Item               Value     Threshold  Converged?
 Maximum Force            0.024957     0.000450     NO 
 RMS     Force            0.008389     0.000300     NO 
 Maximum Displacement     0.068364     0.001800     NO 
 RMS     Displacement     0.022999     0.001200     NO 
 Predicted change in Energy=-8.362555D-03
 Lowest energy point so far.  Saving SCF results.
 GradGradGradGradGradGradGradGradGradGradGradGradGradGradGradGradGradGrad

 Leave Link  103 at Fri Nov  3 15:08:07 2017, MaxMem=   134217728 cpu:               0.0 elap:               0.1
 (Enter /n/sw/g16_nehalem/g16/l202.exe)
                          Input orientation:                          
 ---------------------------------------------------------------------
 Center     Atomic      Atomic             Coordinates (Angstroms)
 Number     Number       Type             X           Y           Z
 ---------------------------------------------------------------------
      1          6           0       -2.301718   -0.440607    0.019163
      2          1           0       -1.948512   -1.474978   -0.000597
      3          1           0       -1.948134    0.059220   -0.886486
      4          1           0       -3.393406   -0.448910    0.004348
      5          6           0       -1.795469    0.277387    1.262714
      6          1           0       -2.167000    1.315647    1.273443
      7          1           0       -2.170280   -0.230055    2.167231
      8          6           0       -0.270497    0.272804    1.260335
      9          1           0        0.105797    0.779891    0.354732
     10          1           0        0.102537   -0.766225    1.249391
     11          6           0        0.233742    0.992827    2.506480
     12          1           0       -0.142307    0.485280    3.410425
     13          1           0       -0.138939    2.030685    2.516123
     14          6           0        1.756309    0.989653    2.506731
     15          1           0        2.143964    1.499601    1.620879
     16          1           0        2.136229    1.501719    3.393027
     17          1           0        2.140622   -0.033753    2.508221
 ---------------------------------------------------------------------
                    Distance matrix (angstroms):
                    1          2          3          4          5
     1  C    0.000000
     2  H    1.093192   0.000000
     3  H    1.093182   1.771598   0.000000
     4  H    1.091820   1.772162   1.772171   0.000000
     5  C    1.522571   2.165678   2.165632   2.159721   0.000000
     6  H    2.162359   3.075468   2.508347   2.495664   1.102785
     7  H    2.162361   2.509680   3.075421   2.494394   1.102784
     8  C    2.485020   2.731378   2.732933   3.442519   1.524981
     9  H    2.719991   3.070973   2.505718   3.725204   2.166046
    10  H    2.720281   2.504317   3.073854   3.724572   2.166040
    11  C    3.830148   4.139774   4.140582   4.636321   2.485258
    12  H    4.125649   4.328979   4.680382   4.800387   2.718239
    13  H    4.125495   4.679542   4.328696   4.800934   2.718305
    14  C    4.970033   5.107524   5.109063   5.903470   3.830148
    15  H    5.108228   5.312783   5.010673   6.088706   4.140197
    16  H    5.903471   6.087900   6.089093   6.772368   4.636321
    17  H    5.108358   5.009223   5.315129   6.088284   4.140158
                    6          7          8          9         10
     6  H    0.000000
     7  H    1.785515   0.000000
     8  C    2.164352   2.164371   0.000000
     9  H    2.509317   3.079882   1.104016   0.000000
    10  H    3.079865   2.509105   1.104018   1.786309   0.000000
    11  C    2.718116   2.718428   1.524981   2.166041   2.166046
    12  H    3.058689   2.483930   2.164362   3.079872   2.509240
    13  H    2.483660   3.059252   2.164361   2.509182   3.079875
    14  C    4.125485   4.125658   2.485019   2.720164   2.720106
    15  H    4.328853   4.680055   2.732151   2.505043   3.072360
    16  H    4.800525   4.800795   3.442519   3.724907   3.724869
    17  H    4.679868   4.328820   2.732158   3.072465   2.504987
                   11         12         13         14         15
    11  C    0.000000
    12  H    1.102784   0.000000
    13  H    1.102784   1.785515   0.000000
    14  C    1.522571   2.162360   2.162360   0.000000
    15  H    2.165655   3.075445   2.509016   1.093187   0.000000
    16  H    2.159721   2.495031   2.495026   1.091820   1.772167
    17  H    2.165655   2.509010   3.075445   1.093187   1.771599
                   16         17
    16  H    0.000000
    17  H    1.772167   0.000000
 Stoichiometry    C5H12
 Framework group  C1[X(C5H12)]
 Deg. of freedom    45
 Full point group                 C1      NOp   1
 RotChk:  IX=0 Diff= 2.82D-05
 Largest Abelian subgroup         C1      NOp   1
 Largest concise Abelian subgroup C1      NOp   1
                         Standard orientation:                         
 ---------------------------------------------------------------------
 Center     Atomic      Atomic             Coordinates (Angstroms)
 Number     Number       Type             X           Y           Z
 ---------------------------------------------------------------------
      1          6           0        2.485017   -0.333698    0.000105
      2          1           0        2.504200   -0.975394   -0.884726
      3          1           0        2.505749   -0.972655    0.886870
      4          1           0        3.386184    0.282717   -0.001650
      5          6           0        1.242629    0.546470   -0.000119
      6          1           0        1.241808    1.193962    0.892567
      7          1           0        1.241986    1.193763   -0.892948
      8          6           0        0.000000   -0.337521   -0.000120
      9          1           0        0.000077   -0.986583    0.892948
     10          1           0       -0.000078   -0.986348   -0.893361
     11          6           0       -1.242629    0.546470    0.000109
     12          1           0       -1.241944    1.194031   -0.892526
     13          1           0       -1.241851    1.193694    0.892989
     14          6           0       -2.485016   -0.333698    0.000007
     15          1           0       -2.504924   -0.974198    0.885683
     16          1           0       -3.386184    0.282718    0.000177
     17          1           0       -2.505023   -0.973853   -0.885916
 ---------------------------------------------------------------------
 Rotational constants (GHZ):          16.3659411           2.0388390           1.9231458
 Leave Link  202 at Fri Nov  3 15:08:07 2017, MaxMem=   134217728 cpu:               0.0 elap:               0.0
 (Enter /n/sw/g16_nehalem/g16/l301.exe)
 Standard basis: VSTO-6G (5D, 7F)
 Ernie: Thresh=  0.10000D-02 Tol=  0.10000D-05 Strict=F.
  NNHCO=     0 NNPyr=     0 NCTC=     0               EPep=         0.000000000
    EC=        91.509469151  ECS=         1.829724426   EG=         0.547355727
   EHC=         0.000000000  EAt=       -26.628119222  AtH=         2.358010613
 EPDDG=         0.003323644  ECC=        93.889872949 EAtT=        28.986129834
 There are    32 symmetry adapted cartesian basis functions of A   symmetry.
 There are    32 symmetry adapted basis functions of A   symmetry.
    32 basis functions,   192 primitive gaussians,    32 cartesian basis functions
    16 alpha electrons       16 beta electrons
       nuclear repulsion energy       122.8760027835 Hartrees.
 IExCor=    0 DFT=F Ex=HF Corr=None ExCW=0 ScaHFX=  1.000000
 ScaDFX=  1.000000  1.000000  1.000000  1.000000 ScalE2=  1.000000  1.000000
 IRadAn=      5 IRanWt=     -1 IRanGd=            0 ICorTp=0 IEmpDi=  4
 Integral buffers will be    131072 words long.
 Regular integral format.
 Two-electron integral symmetry is turned off.
 Leave Link  301 at Fri Nov  3 15:08:08 2017, MaxMem=   134217728 cpu:               0.1 elap:               0.1
 (Enter /n/sw/g16_nehalem/g16/l302.exe)
 Do NDO integrals.
 NPDir=0 NMtPBC=     1 NCelOv=     1 NCel=       1 NClECP=     1 NCelD=      1
         NCelK=      1 NCelE2=     1 NClLst=     1 CellRange=     0.0.
 One-electron integrals computed using PRISM.
 NBasis=    32 RedAO= F EigKep=  0.00D+00  NBF=    32
 NBsUse=    32 1.00D-04 EigRej=  0.00D+00 NBFU=    32
 Leave Link  302 at Fri Nov  3 15:08:08 2017, MaxMem=   134217728 cpu:               0.2 elap:               0.2
 (Enter /n/sw/g16_nehalem/g16/l303.exe)
 DipDrv:  MaxL=1.
 Leave Link  303 at Fri Nov  3 15:08:08 2017, MaxMem=   134217728 cpu:               0.1 elap:               0.1
 (Enter /n/sw/g16_nehalem/g16/l401.exe)
 Initial guess from the checkpoint file:  "/scratch/dhuang9_pentane_conformation_2/Gau-52206.chk"
 B after Tr=     0.000000    0.000000    0.000000
         Rot=    1.000000   -0.000007    0.000002    0.000000 Ang=   0.00 deg.
 Guess basis will be translated and rotated to current coordinates.
 JPrj=0 DoOrth=T DoCkMO=T.
 Leave Link  401 at Fri Nov  3 15:08:08 2017, MaxMem=   134217728 cpu:               0.2 elap:               0.2
 (Enter /n/sw/g16_nehalem/g16/l502.exe)
 Keep J ints in memory in canonical form, NReq=861453.
 FoFCou: FMM=F IPFlag=           0 FMFlag=           0 FMFlg1=           0
         NFxFlg=           0 DoJE=F BraDBF=F KetDBF=F FulRan=T
         wScrn=  0.000000 ICntrl=       600 IOpCl=  2 I1Cent=           0 NGrid=           0
         NMat0=    1 NMatS0=     62 NMatT0=    0 NMatD0=    1 NMtDS0=    0 NMtDT0=    0
 Symmetry not used in FoFCou.
 Two-electron integral symmetry not used.
 Closed shell SCF:
 Using DIIS extrapolation, IDIIS=  1040.
 Overlap will be assumed to be unity.
 NGot=   134217728 LenX=   134153800 LenY=   134152335
 Requested convergence on RMS density matrix=1.00D-08 within 128 cycles.
 Requested convergence on MAX density matrix=1.00D-06.
 Requested convergence on             energy=1.00D-06.
 No special actions if energy rises.

 Cycle   1  Pass 1  IDiag  1:
 E=-0.536117332940620E-01
 DIIS: error= 2.12D-03 at cycle   1 NSaved=   1.
 NSaved= 1 IEnMin= 1 EnMin=-0.536117332940620E-01 IErMin= 1 ErrMin= 2.12D-03
 ErrMax= 2.12D-03  0.00D+00 EMaxC= 1.00D-01 BMatC= 3.11D-04 BMatP= 3.11D-04
 IDIUse=3 WtCom= 9.79D-01 WtEn= 2.12D-02
 Coeff-Com:  0.100D+01
 Coeff-En:   0.100D+01
 Coeff:      0.100D+01
 GapD=    2.000 DampG=2.000 DampE=1.000 DampFc=2.0000 IDamp=-1.
 RMSDP=7.58D-04 MaxDP=3.21D-03              OVMax= 0.00D+00

 Cycle   2  Pass 1  IDiag  3:
 E=-0.543341057363165E-01 Delta-E=       -0.000722372442 Rises=F Damp=F
 DIIS: error= 5.73D-04 at cycle   2 NSaved=   2.
 NSaved= 2 IEnMin= 2 EnMin=-0.543341057363165E-01 IErMin= 2 ErrMin= 5.73D-04
 ErrMax= 5.73D-04  0.00D+00 EMaxC= 1.00D-01 BMatC= 2.13D-05 BMatP= 3.11D-04
 IDIUse=3 WtCom= 9.94D-01 WtEn= 5.73D-03
 Coeff-Com: -0.319D+00 0.132D+01
 Coeff-En:   0.000D+00 0.100D+01
 Coeff:     -0.317D+00 0.132D+01
 Gap=     0.535 Goal=   None    Shift=    0.000
 RMSDP=3.21D-04 MaxDP=1.33D-03 DE=-7.22D-04 OVMax= 2.38D-03

 Cycle   3  Pass 1  IDiag  3:
 E=-0.544047714717948E-01 Delta-E=       -0.000070665735 Rises=F Damp=F
 DIIS: error= 6.29D-05 at cycle   3 NSaved=   3.
 NSaved= 3 IEnMin= 3 EnMin=-0.544047714717948E-01 IErMin= 3 ErrMin= 6.29D-05
 ErrMax= 6.29D-05  0.00D+00 EMaxC= 1.00D-01 BMatC= 4.41D-07 BMatP= 2.13D-05
 IDIUse=1 WtCom= 1.00D+00 WtEn= 0.00D+00
 Coeff-Com:  0.132D+00-0.594D+00 0.146D+01
 Coeff:      0.132D+00-0.594D+00 0.146D+01
 Gap=     0.535 Goal=   None    Shift=    0.000
 RMSDP=6.83D-05 MaxDP=3.22D-04 DE=-7.07D-05 OVMax= 5.12D-04

 Cycle   4  Pass 1  IDiag  3:
 E=-0.544070482963832E-01 Delta-E=       -0.000002276825 Rises=F Damp=F
 DIIS: error= 1.49D-05 at cycle   4 NSaved=   4.
 NSaved= 4 IEnMin= 4 EnMin=-0.544070482963832E-01 IErMin= 4 ErrMin= 1.49D-05
 ErrMax= 1.49D-05  0.00D+00 EMaxC= 1.00D-01 BMatC= 1.74D-08 BMatP= 4.41D-07
 IDIUse=1 WtCom= 1.00D+00 WtEn= 0.00D+00
 Coeff-Com: -0.649D-01 0.300D+00-0.831D+00 0.160D+01
 Coeff:     -0.649D-01 0.300D+00-0.831D+00 0.160D+01
 Gap=     0.535 Goal=   None    Shift=    0.000
 RMSDP=1.44D-05 MaxDP=8.64D-05 DE=-2.28D-06 OVMax= 1.23D-04

 Cycle   5  Pass 1  IDiag  3:
 E=-0.544071401060222E-01 Delta-E=       -0.000000091810 Rises=F Damp=F
 DIIS: error= 3.17D-06 at cycle   5 NSaved=   5.
 NSaved= 5 IEnMin= 5 EnMin=-0.544071401060222E-01 IErMin= 5 ErrMin= 3.17D-06
 ErrMax= 3.17D-06  0.00D+00 EMaxC= 1.00D-01 BMatC= 4.40D-10 BMatP= 1.74D-08
 IDIUse=1 WtCom= 1.00D+00 WtEn= 0.00D+00
 Coeff-Com:  0.250D-01-0.115D+00 0.324D+00-0.707D+00 0.147D+01
 Coeff:      0.250D-01-0.115D+00 0.324D+00-0.707D+00 0.147D+01
 Gap=     0.535 Goal=   None    Shift=    0.000
 RMSDP=2.34D-06 MaxDP=2.11D-05 DE=-9.18D-08 OVMax= 1.84D-05

 Cycle   6  Pass 1  IDiag  3:
 E=-0.544071425654238E-01 Delta-E=       -0.000000002459 Rises=F Damp=F
 DIIS: error= 5.90D-07 at cycle   6 NSaved=   6.
 NSaved= 6 IEnMin= 6 EnMin=-0.544071425654238E-01 IErMin= 6 ErrMin= 5.90D-07
 ErrMax= 5.90D-07  0.00D+00 EMaxC= 1.00D-01 BMatC= 2.13D-11 BMatP= 4.40D-10
 IDIUse=1 WtCom= 1.00D+00 WtEn= 0.00D+00
 Coeff-Com: -0.115D-01 0.531D-01-0.150D+00 0.333D+00-0.802D+00 0.158D+01
 Coeff:     -0.115D-01 0.531D-01-0.150D+00 0.333D+00-0.802D+00 0.158D+01
 Gap=     0.535 Goal=   None    Shift=    0.000
 RMSDP=5.38D-07 MaxDP=5.22D-06 DE=-2.46D-09 OVMax= 5.20D-06

 Cycle   7  Pass 1  IDiag  3:
 E=-0.544071426975137E-01 Delta-E=       -0.000000000132 Rises=F Damp=F
 DIIS: error= 2.29D-07 at cycle   7 NSaved=   7.
 NSaved= 7 IEnMin= 7 EnMin=-0.544071426975137E-01 IErMin= 7 ErrMin= 2.29D-07
 ErrMax= 2.29D-07  0.00D+00 EMaxC= 1.00D-01 BMatC= 1.64D-12 BMatP= 2.13D-11
 IDIUse=1 WtCom= 1.00D+00 WtEn= 0.00D+00
 Coeff-Com:  0.458D-02-0.211D-01 0.598D-01-0.133D+00 0.342D+00-0.885D+00
 Coeff-Com:  0.163D+01
 Coeff:      0.458D-02-0.211D-01 0.598D-01-0.133D+00 0.342D+00-0.885D+00
 Coeff:      0.163D+01
 Gap=     0.535 Goal=   None    Shift=    0.000
 RMSDP=1.69D-07 MaxDP=1.96D-06 DE=-1.32D-10 OVMax= 1.45D-06

 Cycle   8  Pass 1  IDiag  3:
 E=-0.544071427081576E-01 Delta-E=       -0.000000000011 Rises=F Damp=F
 DIIS: error= 4.00D-08 at cycle   8 NSaved=   8.
 NSaved= 8 IEnMin= 8 EnMin=-0.544071427081576E-01 IErMin= 8 ErrMin= 4.00D-08
 ErrMax= 4.00D-08  0.00D+00 EMaxC= 1.00D-01 BMatC= 7.51D-14 BMatP= 1.64D-12
 IDIUse=1 WtCom= 1.00D+00 WtEn= 0.00D+00
 Coeff-Com: -0.995D-03 0.457D-02-0.130D-01 0.289D-01-0.796D-01 0.236D+00
 Coeff-Com: -0.600D+00 0.142D+01
 Coeff:     -0.995D-03 0.457D-02-0.130D-01 0.289D-01-0.796D-01 0.236D+00
 Coeff:     -0.600D+00 0.142D+01
 Gap=     0.535 Goal=   None    Shift=    0.000
 RMSDP=3.36D-08 MaxDP=3.40D-07 DE=-1.06D-11 OVMax= 2.58D-07

 Cycle   9  Pass 1  IDiag  3:
 E=-0.544071427084560E-01 Delta-E=        0.000000000000 Rises=F Damp=F
 DIIS: error= 7.48D-09 at cycle   9 NSaved=   9.
 NSaved= 9 IEnMin= 9 EnMin=-0.544071427084560E-01 IErMin= 9 ErrMin= 7.48D-09
 ErrMax= 7.48D-09  0.00D+00 EMaxC= 1.00D-01 BMatC= 5.18D-15 BMatP= 7.51D-14
 IDIUse=1 WtCom= 1.00D+00 WtEn= 0.00D+00
 Coeff-Com:  0.147D-03-0.672D-03 0.191D-02-0.428D-02 0.139D-01-0.503D-01
 Coeff-Com:  0.162D+00-0.609D+00 0.149D+01
 Coeff:      0.147D-03-0.672D-03 0.191D-02-0.428D-02 0.139D-01-0.503D-01
 Coeff:      0.162D+00-0.609D+00 0.149D+01
 Gap=     0.535 Goal=   None    Shift=    0.000
 RMSDP=8.63D-09 MaxDP=6.64D-08 DE=-2.98D-13 OVMax= 6.76D-08

 Cycle  10  Pass 2  IDiag  1:
 SCF Done:  E(RPDDG) = -0.544071427085E-01 A.U. after   10 cycles
            NFock=  9  Conv=0.86D-08     -V/T= 0.9987
 KE=-4.252064942196D+01 PE=-1.819453785873D+02 EE= 1.015356180831D+02
 Leave Link  502 at Fri Nov  3 15:08:08 2017, MaxMem=   134217728 cpu:               0.1 elap:               0.1
 (Enter /n/sw/g16_nehalem/g16/l701.exe)
 ... and contract with generalized density number  0.
 Compute integral first derivatives.
 Leave Link  701 at Fri Nov  3 15:08:08 2017, MaxMem=   134217728 cpu:               0.1 elap:               0.1
 (Enter /n/sw/g16_nehalem/g16/l702.exe)
 L702 exits ... SP integral derivatives will be done elsewhere.
 Leave Link  702 at Fri Nov  3 15:08:08 2017, MaxMem=   134217728 cpu:               0.1 elap:               0.1
 (Enter /n/sw/g16_nehalem/g16/l703.exe)
 Integral derivatives from FoFJK, PRISM(SPDF).
 Compute integral first derivatives, UseDBF=F ICtDFT=           0.
 Calling FoFJK, ICntrl=      2127 FMM=F ISym2X=0 I1Cent= 0 IOpClX= 0 NMat=1 NMatS=1 NMatT=0.
 FoFJK:  IHMeth=41 ICntrl=    2127 DoSepK=F KAlg= 0 I1Cent=           0 FoldK=F
 IRaf=         0 NMat=       1 IRICut=       1 DoRegI=T DoRafI=F ISym2E= 0 IDoP0=3 IntGTp=3.
 FoFCou: FMM=F IPFlag=           0 FMFlag=      100000 FMFlg1=         800
         NFxFlg=           0 DoJE=F BraDBF=F KetDBF=F FulRan=T
         wScrn=  0.000000 ICntrl=      2127 IOpCl=  0 I1Cent=           0 NGrid=           0
         NMat0=    1 NMatS0=      1 NMatT0=    0 NMatD0=    1 NMtDS0=    0 NMtDT0=    0
 Symmetry not used in FoFCou.
 Leave Link  703 at Fri Nov  3 15:08:09 2017, MaxMem=   134217728 cpu:               0.1 elap:               0.1
 (Enter /n/sw/g16_nehalem/g16/l716.exe)
 Dipole        =-2.70267275D-08-1.13249860D-02 1.93853829D-07
 ***** Axes restored to original set *****
 -------------------------------------------------------------------
 Center     Atomic                   Forces (Hartrees/Bohr)
 Number     Number              X              Y              Z
 -------------------------------------------------------------------
      1        6           0.001571189    0.004516853    0.007817945
      2        1          -0.000308859   -0.001821336   -0.001788609
      3        1          -0.000298453   -0.000643594   -0.002468209
      4        1          -0.001408867   -0.000975032   -0.001696706
      5        6           0.004519446   -0.005417390   -0.009351879
      6        1          -0.002413918    0.002763226    0.002124105
      7        1          -0.002410273    0.000468771    0.003452186
      8        6          -0.006570717    0.004667653    0.008035113
      9        1           0.002496720   -0.000541041   -0.003760029
     10        1           0.002490767   -0.002998493   -0.002341059
     11        6           0.008682875   -0.003953761   -0.006797424
     12        1          -0.002236537    0.000533277    0.003559896
     13        1          -0.002231879    0.002827961    0.002232211
     14        6          -0.009036221    0.000780495    0.001314306
     15        1           0.002421345    0.000317282   -0.000800054
     16        1           0.002314627    0.000334778    0.000587250
     17        1           0.002418754   -0.000859650   -0.000119041
 -------------------------------------------------------------------
 Cartesian Forces:  Max     0.009351879 RMS     0.003765661
 Leave Link  716 at Fri Nov  3 15:08:09 2017, MaxMem=   134217728 cpu:               0.1 elap:               0.1
 (Enter /n/sw/g16_nehalem/g16/l103.exe)

 GradGradGradGradGradGradGradGradGradGradGradGradGradGradGradGradGradGrad
 Berny optimization.
 Using GEDIIS/GDIIS optimizer.
 FormGI is forming the generalized inverse of G from B-inverse, IUseBI=4.
 Internal  Forces:  Max     0.003686792 RMS     0.001474094
 Search for a local minimum.
 Step number   2 out of a maximum of   92
 All quantities printed in internal units (Hartrees-Bohrs-Radians)
 RMS Force = .14741D-02 SwitMx=.10000D-02 MixMth= 1
 Mixed Optimization -- RFO/linear search
 Update second derivatives using D2CorX and points    1    2
 DE= -9.12D-03 DEPred=-8.36D-03 R= 1.09D+00
 TightC=F SS=  1.41D+00  RLast= 2.23D-01 DXNew= 5.0454D-01 6.6810D-01
 Trust test= 1.09D+00 RLast= 2.23D-01 DXMaxT set to 5.05D-01
 ITU=  1  0
 Use linear search instead of GDIIS.
     Eigenvalues ---    0.00237   0.00237   0.00237   0.00237   0.03801
     Eigenvalues ---    0.03801   0.03807   0.04626   0.04856   0.04857
     Eigenvalues ---    0.05497   0.05498   0.05534   0.05534   0.07658
     Eigenvalues ---    0.07671   0.07671   0.11703   0.11714   0.11714
     Eigenvalues ---    0.15087   0.16000   0.16000   0.16000   0.16000
     Eigenvalues ---    0.16004   0.21880   0.21884   0.22017   0.28235
     Eigenvalues ---    0.28519   0.28519   0.28897   0.35677   0.37230
     Eigenvalues ---    0.37230   0.37230   0.37230   0.37230   0.37230
     Eigenvalues ---    0.37230   0.37230   0.37230   0.37230   0.37652
 RFO step:  Lambda=-1.04751232D-03 EMin= 2.36824144D-03
 Quartic linear search produced a step of  0.21553.
 Iteration  1 RMS(Cart)=  0.01753860 RMS(Int)=  0.00019092
 Iteration  2 RMS(Cart)=  0.00023550 RMS(Int)=  0.00009251
 Iteration  3 RMS(Cart)=  0.00000002 RMS(Int)=  0.00009251
 ITry= 1 IFail=0 DXMaxC= 5.14D-02 DCOld= 1.00D+10 DXMaxT= 5.05D-01 DXLimC= 3.00D+00 Rises=F
 Variable       Old X    -DE/DX   Delta X   Delta X   Delta X     New X
                                 (Linear)    (Quad)   (Total)
    R1        2.06583   0.00166   0.00945  -0.00153   0.00792   2.07375
    R2        2.06582   0.00165   0.00944  -0.00153   0.00791   2.07373
    R3        2.06324   0.00144   0.00889  -0.00182   0.00707   2.07031
    R4        2.87724  -0.00188  -0.00710  -0.00284  -0.00994   2.86730
    R5        2.08396   0.00344   0.01335   0.00140   0.01476   2.09872
    R6        2.08396   0.00344   0.01335   0.00140   0.01476   2.09871
    R7        2.88180   0.00074  -0.00612   0.00759   0.00147   2.88327
    R8        2.08629   0.00369   0.01385   0.00186   0.01571   2.10200
    R9        2.08629   0.00369   0.01385   0.00185   0.01571   2.10200
   R10        2.88180   0.00074  -0.00612   0.00759   0.00147   2.88327
   R11        2.08396   0.00344   0.01335   0.00140   0.01476   2.09872
   R12        2.08396   0.00344   0.01335   0.00140   0.01476   2.09872
   R13        2.87724  -0.00188  -0.00710  -0.00284  -0.00994   2.86730
   R14        2.06582   0.00165   0.00944  -0.00153   0.00792   2.07374
   R15        2.06324   0.00144   0.00889  -0.00182   0.00707   2.07031
   R16        2.06582   0.00165   0.00944  -0.00153   0.00792   2.07374
    A1        1.88930  -0.00210  -0.00460  -0.01339  -0.01814   1.87116
    A2        1.89190  -0.00197  -0.00404  -0.01161  -0.01580   1.87610
    A3        1.93214   0.00194   0.00463   0.01118   0.01565   1.94779
    A4        1.89193  -0.00197  -0.00403  -0.01159  -0.01578   1.87615
    A5        1.93208   0.00193   0.00462   0.01115   0.01561   1.94769
    A6        1.92530   0.00194   0.00316   0.01286   0.01585   1.94115
    A7        1.91761  -0.00017   0.00150   0.00194   0.00330   1.92091
    A8        1.91761  -0.00017   0.00150   0.00196   0.00332   1.92094
    A9        1.90689   0.00152  -0.00081   0.01754   0.01654   1.92343
   A10        1.88677  -0.00112  -0.00514  -0.02982  -0.03492   1.85185
   A11        1.91744  -0.00004   0.00147   0.00398   0.00533   1.92278
   A12        1.91747  -0.00004   0.00147   0.00398   0.00534   1.92281
   A13        1.91850  -0.00016   0.00170   0.00293   0.00447   1.92297
   A14        1.91849  -0.00016   0.00169   0.00292   0.00446   1.92295
   A15        1.90494   0.00178  -0.00123   0.02002   0.01857   1.92350
   A16        1.88491  -0.00118  -0.00554  -0.03217  -0.03767   1.84725
   A17        1.91849  -0.00016   0.00169   0.00293   0.00447   1.92296
   A18        1.91850  -0.00016   0.00169   0.00292   0.00446   1.92296
   A19        1.91746  -0.00004   0.00147   0.00398   0.00534   1.92279
   A20        1.91746  -0.00004   0.00147   0.00398   0.00534   1.92279
   A21        1.90689   0.00152  -0.00081   0.01754   0.01654   1.92343
   A22        1.88677  -0.00112  -0.00514  -0.02982  -0.03492   1.85185
   A23        1.91761  -0.00017   0.00150   0.00195   0.00331   1.92092
   A24        1.91761  -0.00017   0.00150   0.00195   0.00331   1.92092
   A25        1.93211   0.00194   0.00463   0.01117   0.01563   1.94774
   A26        1.92530   0.00194   0.00316   0.01286   0.01585   1.94115
   A27        1.93211   0.00194   0.00463   0.01117   0.01563   1.94774
   A28        1.89192  -0.00197  -0.00403  -0.01160  -0.01579   1.87613
   A29        1.88930  -0.00210  -0.00460  -0.01339  -0.01814   1.87116
   A30        1.89192  -0.00197  -0.00403  -0.01160  -0.01579   1.87613
    D1       -3.13259   0.00075   0.00236   0.01723   0.01961  -3.11298
    D2       -1.05890  -0.00083  -0.00211  -0.01696  -0.01909  -1.07799
    D3        1.04587  -0.00004   0.00013   0.00014   0.00027   1.04614
    D4        1.05543   0.00084   0.00219   0.01938   0.02160   1.07702
    D5        3.12911  -0.00074  -0.00227  -0.01480  -0.01710   3.11201
    D6       -1.04931   0.00005  -0.00004   0.00230   0.00226  -1.04704
    D7       -1.03858   0.00079   0.00228   0.01830   0.02060  -1.01798
    D8        1.03510  -0.00079  -0.00219  -0.01588  -0.01809   1.01701
    D9        3.13987   0.00000   0.00005   0.00122   0.00127   3.14114
   D10        1.03593  -0.00082  -0.00235  -0.01756  -0.01994   1.01599
   D11       -1.03656   0.00082   0.00237   0.01834   0.02075  -1.01581
   D12        3.14128   0.00000   0.00001   0.00040   0.00041  -3.14150
   D13       -1.06891  -0.00153  -0.00460  -0.03339  -0.03806  -1.10697
   D14       -3.14139   0.00011   0.00012   0.00251   0.00263  -3.13877
   D15        1.03644  -0.00071  -0.00224  -0.01544  -0.01771   1.01873
   D16        3.14079  -0.00011  -0.00009  -0.00169  -0.00178   3.13901
   D17        1.06830   0.00153   0.00463   0.03421   0.03891   1.10721
   D18       -1.03705   0.00071   0.00227   0.01626   0.01857  -1.01848
   D19        1.03667  -0.00071  -0.00225  -0.01579  -0.01807   1.01860
   D20       -1.03682   0.00071   0.00225   0.01591   0.01821  -1.01861
   D21        3.14152   0.00000   0.00000   0.00006   0.00007   3.14159
   D22       -3.14116   0.00011   0.00011   0.00217   0.00228  -3.13888
   D23        1.06854   0.00153   0.00462   0.03387   0.03856   1.10709
   D24       -1.03631   0.00082   0.00236   0.01802   0.02042  -1.01589
   D25       -1.06867  -0.00153  -0.00461  -0.03373  -0.03842  -1.10709
   D26        3.14102  -0.00011  -0.00011  -0.00203  -0.00213   3.13889
   D27        1.03618  -0.00082  -0.00236  -0.01788  -0.02027   1.01590
   D28        1.04758  -0.00005   0.00008  -0.00107  -0.00099   1.04659
   D29        3.14158   0.00000   0.00000   0.00001   0.00001   3.14159
   D30       -1.04759   0.00005  -0.00008   0.00109   0.00100  -1.04659
   D31       -3.13085   0.00074   0.00232   0.01602   0.01836  -3.11250
   D32       -1.03685   0.00079   0.00223   0.01710   0.01935  -1.01749
   D33        1.05716   0.00084   0.00215   0.01818   0.02035   1.07751
   D34       -1.05717  -0.00084  -0.00215  -0.01816  -0.02033  -1.07751
   D35        1.03683  -0.00079  -0.00223  -0.01709  -0.01934   1.01749
   D36        3.13084  -0.00074  -0.00232  -0.01601  -0.01834   3.11250
         Item               Value     Threshold  Converged?
 Maximum Force            0.003687     0.000450     NO 
 RMS     Force            0.001474     0.000300     NO 
 Maximum Displacement     0.051392     0.001800     NO 
 RMS     Displacement     0.017397     0.001200     NO 
 Predicted change in Energy=-7.354922D-04
 Lowest energy point so far.  Saving SCF results.
 GradGradGradGradGradGradGradGradGradGradGradGradGradGradGradGradGradGrad

 Leave Link  103 at Fri Nov  3 15:08:09 2017, MaxMem=   134217728 cpu:               0.0 elap:               0.0
 (Enter /n/sw/g16_nehalem/g16/l202.exe)
                          Input orientation:                          
 ---------------------------------------------------------------------
 Center     Atomic      Atomic             Coordinates (Angstroms)
 Number     Number       Type             X           Y           Z
 ---------------------------------------------------------------------
      1          6           0       -2.313545   -0.441763    0.017468
      2          1           0       -1.971383   -1.483796   -0.019168
      3          1           0       -1.969037    0.045655   -0.903378
      4          1           0       -3.408784   -0.453767   -0.006142
      5          6           0       -1.798668    0.272080    1.253416
      6          1           0       -2.183528    1.313521    1.279896
      7          1           0       -2.186626   -0.223053    2.168701
      8          6           0       -0.272940    0.274713    1.263223
      9          1           0        0.115800    0.768213    0.345282
     10          1           0        0.112725   -0.768203    1.233753
     11          6           0        0.244902    0.992399    2.506089
     12          1           0       -0.141062    0.497849    3.422533
     13          1           0       -0.137995    2.034528    2.533908
     14          6           0        1.762181    0.994960    2.515755
     15          1           0        2.170869    1.504659    1.634043
     16          1           0        2.152209    1.506883    3.402356
     17          1           0        2.167817   -0.024690    2.518427
 ---------------------------------------------------------------------
                    Distance matrix (angstroms):
                    1          2          3          4          5
     1  C    0.000000
     2  H    1.097383   0.000000
     3  H    1.097370   1.766650   0.000000
     4  H    1.095559   1.768403   1.768424   0.000000
     5  C    1.517312   2.175407   2.175328   2.169288   0.000000
     6  H    2.166022   3.091530   2.533807   2.505685   1.110594
     7  H    2.166043   2.534279   3.091475   2.505362   1.110592
     8  C    2.495859   2.760722   2.761046   3.460561   1.525762
     9  H    2.733719   3.092038   2.535309   3.746922   2.176245
    10  H    2.733623   2.534835   3.092479   3.746629   2.176234
    11  C    3.846518   4.173773   4.174005   4.663917   2.502844
    12  H    4.146929   4.372905   4.717996   4.831087   2.739289
    13  H    4.146988   4.717851   4.373016   4.831307   2.739292
    14  C    4.991708   5.148744   5.149140   5.932761   3.846518
    15  H    5.148965   5.368632   5.070111   6.136625   4.173889
    16  H    5.932761   6.136367   6.136710   6.810775   4.663917
    17  H    5.148918   5.069651   5.369103   6.136452   4.173887
                    6          7          8          9         10
     6  H    0.000000
     7  H    1.775118   0.000000
     8  C    2.174798   2.174823   0.000000
     9  H    2.541215   3.099779   1.112329   0.000000
    10  H    3.099755   2.541324   1.112331   1.774814   0.000000
    11  C    2.739332   2.739249   1.525762   2.176238   2.176242
    12  H    3.070486   2.505221   2.174811   3.099766   2.541270
    13  H    2.505315   3.070333   2.174811   2.541269   3.099769
    14  C    4.146980   4.146936   2.495858   2.733667   2.733675
    15  H    4.372954   4.717904   2.760884   2.535067   3.092263
    16  H    4.831236   4.831157   3.460561   3.746772   3.746779
    17  H    4.717942   4.372967   2.760883   3.092253   2.535075
                   11         12         13         14         15
    11  C    0.000000
    12  H    1.110593   0.000000
    13  H    1.110593   1.775118   0.000000
    14  C    1.517312   2.166033   2.166032   0.000000
    15  H    2.175368   3.091502   2.534043   1.097376   0.000000
    16  H    2.169288   2.505523   2.505523   1.095559   1.768414
    17  H    2.175368   2.534043   3.091502   1.097376   1.766650
                   16         17
    16  H    0.000000
    17  H    1.768414   0.000000
 Stoichiometry    C5H12
 Framework group  C1[X(C5H12)]
 Deg. of freedom    45
 Full point group                 C1      NOp   1
 RotChk:  IX=0 Diff= 1.50D-04
[...]
   yxz        0.477603D+01      0.412611D-01      0.153137D-01
   yyz        0.113804D+02      0.983177D-01      0.364896D-01
   zxz        0.182483D-04      0.157651D-06      0.585106D-07
   zyz        0.773619D-04      0.668347D-06      0.248050D-06
   zzz        0.223379D+01      0.192982D-01      0.716235D-02

 ----------------------------------------------------------------------
 1\1\GINC-HOLY2A09307\Freq\RPDDG\ZDO\C5H12\ROOT\03-Nov-2017\0\\#P Geom=
 AllCheck Guess=TCheck SCRF=Check GenChk RPDDG/ZDO Freq\\pentane confor
 mation 2\\0,1\C,-2.3072416724,-0.4393137636,0.0216672926\H,-1.96466734
 24,-1.4803421184,-0.0167173937\H,-1.9617886798,0.0457294915,-0.8991806
 561\H,-3.4015854834,-0.4536842585,-0.0067273291\C,-1.7948743707,0.2737
 695542,1.2564695091\H,-2.1803862268,1.3141463773,1.2882724965\H,-2.183
 3959788,-0.2164142114,2.1734132015\C,-0.2731521348,0.274847568,1.26349
 12212\H,0.1176394473,0.7636816155,0.3448347759\H,0.114647592,-0.766340
 2516,1.2295969589\C,0.2403470994,0.9911937485,2.5039974648\H,-0.149145
 5937,0.5006388669,3.4203305675\H,-0.146146181,2.0312235613,2.535231487
 4\C,1.755496616,0.9928442299,2.5119856548\H,2.1649656167,1.5004047575,
 1.6303476399\H,2.1502484517,1.5034581477,3.3963190433\H,2.1619752803,-
 0.0256558884,2.512829529\\Version=ES64L-G16RevA.03\State=1-A\HF=-0.055
 2411\RMSD=1.244e-09\RMSF=7.625e-05\ZeroPoint=0.1536086\Thermal=0.16071
 26\Dipole=0.0079284,-0.0056236,-0.0097004\DipoleDeriv=-0.2377012,-0.01
 92109,-0.0334319,-0.0036892,-0.1682039,0.0134984,-0.0065791,0.0134424,
 -0.1527893,0.0675076,0.0036481,-0.0048304,0.0155352,0.0414653,0.002257
 7,-0.0049686,-0.0169395,0.050748,0.0674351,-0.0060593,0.0007735,-0.012
 0757,0.0548368,-0.0092978,0.0110628,0.0098802,0.0374467,0.0443131,0.00
 11864,0.0019606,-0.0141376,0.0638155,-0.0142154,-0.0245396,-0.0141644,
 0.0474293,0.0020022,0.0252782,0.043963,0.0092514,-0.0654294,0.0108918,
 0.0162374,0.0109523,-0.0527223,0.0325702,0.0055415,-0.0091435,-0.00409
 68,0.0304415,-0.002119,-0.0001132,-0.0135777,0.0421748,0.0325502,-0.01
 06612,0.0002389,0.0019916,0.0460687,-0.0045981,-0.0035793,0.0068515,0.
 0265704,-0.0774823,0.0050226,0.0087394,0.0050216,-0.0906792,0.0034955,
 0.0087399,0.0034913,-0.0866208,0.0376728,-0.0090629,0.004953,-0.001719
 4,0.0479244,-0.0031819,0.0007294,0.0087988,0.0312639,0.0377152,0.00881
 95,-0.0053992,0.0014756,0.0329513,0.0002172,-0.0011754,-0.0117639,0.04
 61976,-0.0192466,0.0130385,0.022726,0.0290706,-0.0601161,0.0201506,0.0
 504486,0.020097,-0.0367869,0.0301394,-0.0099499,0.0042729,-0.0058072,0
 .043869,-0.0074356,-0.0015692,0.0085165,0.0311798,0.0301904,0.0086994,
 -0.006503,0.0015427,0.0338393,0.0027834,-0.0058734,-0.0131582,0.041157
 9,-0.1697691,-0.0158086,-0.0273162,-0.0313352,-0.1851923,-0.0159746,-0
 .0541662,-0.0159222,-0.203733,0.0452293,-0.0067753,0.0170728,0.0089364
 ,0.0647518,0.0141262,0.0012076,0.0107654,0.0497386,0.0316207,-0.011871
 6,-0.020666,0.0034527,0.0669887,-0.0086679,0.0058339,-0.0087198,0.0569
 486,0.0452541,0.018167,0.0025929,-0.003415,0.0426695,-0.0019317,0.0083
 069,0.001449,0.0717962\Polar=36.5623973,0.4447398,34.3639019,0.7780743
 ,0.9034269,35.4070724\HyperPolar=-18.8397403,-0.2579969,7.8923145,-9.6
 810681,-0.5528295,1.4898469,0.5538181,9.641906,10.8651192,1.5962816\PG
 =C01 [X(C5H12)]\NImag=0\\0.55129293,0.00591791,0.52422865,0.01032599,0
 .00509710,0.53014339,-0.06632016,0.07769860,0.00151486,0.06705174,0.07
 697825,-0.26819748,-0.00506969,-0.08448128,0.29716595,0.00097078,-0.00
 301744,-0.04038566,0.00061459,0.00834454,0.04137740,-0.06675537,-0.037
 67707,0.06861610,0.00519276,0.00365815,-0.00552040,0.06752968,-0.03779
 255,-0.09336098,0.09723184,-0.00669801,-0.01496779,0.01952596,0.042932
 60,0.09756634,0.06771475,0.09518213,-0.21479018,0.00044042,0.00472829,
 -0.00101981,-0.07349903,-0.10611709,0.24049755,-0.29796546,-0.00149824
 ,-0.00342730,-0.01113334,0.00458100,0.00023464,-0.01121151,-0.00204553
 ,0.00407504,0.32712295,-0.00000018,-0.03979357,-0.00007977,0.02358639,
 -0.00154227,-0.00101759,-0.01238438,0.00206826,0.00187967,0.00218292,0
 .03759494,-0.00083686,-0.00008465,-0.03989687,-0.00075434,-0.00014255,
 0.00254211,0.02005157,0.00097647,-0.00098741,0.00472029,0.00242953,0.0
 4041102,-0.09636306,-0.02965556,-0.05134455,0.00666083,0.00172876,0.00
 569652,0.00668943,0.00409902,0.00440029,-0.00648935,-0.01263088,-0.021
 87495,0.53499397,-0.03022051,-0.12263485,-0.07803110,-0.00851852,-0.01
 076577,-0.02197940,0.00424153,0.00931694,0.00595264,-0.00245040,0.0025
 9863,-0.00141980,0.00304558,0.52821013,-0.05232104,-0.07802922,-0.2126
 7459,-0.00000624,-0.00561365,0.00012009,-0.00737181,-0.01038024,-0.019
 99053,-0.00426971,-0.00145291,0.00088851,0.00531829,0.01510179,0.54561
 741,0.00564217,-0.00727744,-0.00047207,-0.00033720,-0.00033093,-0.0013
 4753,0.00007863,0.00017939,0.00022990,-0.00019554,-0.00034720,-0.00011
 419,-0.06678321,0.07334610,0.00180954,0.07542309,0.00174386,-0.0100182
 5,-0.00487749,-0.00036804,-0.00010289,-0.00095398,0.00015895,0.0001308
 8,-0.00005414,-0.00043157,-0.00048932,-0.00023694,0.07417223,-0.245911
 86,-0.00276274,-0.08315572,0.26718579,0.00446746,-0.02099282,0.0002366
 6,-0.00125438,-0.00097111,-0.00226938,0.00030570,-0.00003890,0.0000908
 7,-0.00020705,-0.00025394,0.00005074,0.00046185,0.00032052,-0.04059247
 ,0.00177590,0.00427509,0.04035778,0.00566505,0.00321965,-0.00653162,0.
 00007846,0.00010997,0.00026984,-0.00033949,-0.00100214,-0.00096126,-0.
 00019410,0.00007490,-0.00035756,-0.06721570,-0.03522961,0.06495839,0.0
 0423767,0.00323928,-0.00402486,0.07592179,0.00302913,0.00885105,-0.010
 09979,0.00018578,0.00014049,-0.00003291,-0.00090283,-0.00089266,-0.001
 42748,0.00003648,0.00012839,0.00010271,-0.03681503,-0.09039919,0.08943
 215,-0.00518932,-0.01405476,0.01835273,0.04322825,0.09283140,0.0037985
 4,0.00598554,-0.01865596,0.00028993,-0.00004824,0.00008269,-0.00094674
 ,-0.00141063,-0.00147730,-0.00047703,0.00012001,-0.00056954,0.06499302
 ,0.08635152,-0.19567304,0.00082215,0.00444965,-0.00094092,-0.07170630,
 -0.09562391,0.21421471,-0.02432400,-0.00917528,-0.01595907,-0.00124971
 ,-0.00194721,-0.00116288,-0.00124147,-0.00003128,-0.00226576,0.0000189
 0,-0.00021688,-0.00037622,-0.26115016,0.00492789,0.00789721,-0.0114804
 5,0.00414407,0.00043732,-0.01156087,-0.00164214,0.00378640,0.55635939,
 -0.01786632,0.00085992,-0.00407264,-0.00218066,-0.00134917,-0.00127050
 ,0.00000956,0.00038304,-0.00006158,-0.00036418,-0.00058420,-0.00159681
 ,0.00500927,-0.07646867,0.00090231,0.02313410,0.00300618,-0.00048884,-
 0.01191886,0.00416339,0.00026098,0.00641044,0.52287381,-0.03098761,-0.
 00404310,-0.00391617,-0.00124957,-0.00106526,-0.00038737,-0.00251189,-
 0.00026621,-0.00212697,-0.00063079,-0.00159618,-0.00242394,0.00803791,
 0.00090203,-0.07539388,-0.00049158,-0.00035043,0.00401038,0.01978213,0
 .00009289,0.00293322,0.01122517,0.01405617,0.53910300,-0.00345467,-0.0
 0217148,-0.00060183,-0.00007594,-0.00005509,0.00003061,0.00016855,0.00
 027867,-0.00024763,0.00006305,0.00004605,0.00007923,-0.01169210,-0.011
 85459,0.01988375,0.00038125,0.00010614,0.00016269,-0.00300609,0.000295
 58,-0.00048234,-0.06686676,-0.03481938,0.06366286,0.07590085,-0.001907
 70,-0.00083161,-0.00035803,-0.00007827,-0.00009056,-0.00001061,-0.0000
 9733,-0.00017085,-0.00013569,0.00002951,-0.00001243,-0.00001150,-0.001
 70595,0.00408266,0.00007613,0.00009512,0.00011210,-0.00015421,0.000296
 33,0.00031513,0.00003922,-0.03645986,-0.08950409,0.08788183,0.04238935
 ,0.09190857,-0.00076004,-0.00037552,0.00062090,0.00000087,-0.00000763,
 -0.00000935,0.00085666,0.00046794,-0.00020922,0.00000426,-0.00001812,-
 0.00005226,0.00378900,0.00029174,0.00291470,0.00017136,-0.00009879,-0.
 00003435,-0.00052264,0.00003161,-0.00007454,0.06460627,0.08520563,-0.1
 9451626,-0.06971695,-0.09434248,0.21609989,-0.00344540,0.00057260,-0.0
 0218564,0.00016800,-0.00035518,0.00011877,-0.00007550,0.00005412,-0.00
 003237,0.00006297,0.00004549,0.00007953,-0.01161218,0.02319067,-0.0003
 8388,-0.00300950,-0.00055640,0.00000963,0.00038175,0.00008740,0.000173
 28,-0.06644192,0.07202749,0.00152393,0.00430824,-0.00518451,0.00086412
 ,0.07541870,0.00030380,0.00057426,0.00044186,0.00078872,-0.00034478,0.
 00036954,0.00003989,-0.00002195,0.00003217,-0.00001125,-0.00002964,-0.
 00002822,0.00417865,0.00296598,-0.00029660,-0.00059171,-0.00000482,-0.
 00015555,0.00010028,0.00011091,-0.00009943,0.07366787,-0.24364465,-0.0
 0313831,0.00327304,-0.01419848,0.00455676,-0.08101724,0.26724793,-0.00
 203598,0.00045944,-0.00079451,0.00034206,-0.00023682,-0.00003637,-0.00
 006733,0.00002932,-0.00007840,0.00002780,-0.00002136,-0.00003497,0.000
 38336,-0.00048227,0.00395108,-0.00000983,-0.00014778,0.00024881,0.0001
 6792,-0.00015485,-0.00003304,0.00058057,-0.00046208,-0.04079904,-0.003
 99963,0.01835445,-0.00101986,0.00204184,0.00615108,0.04124296,-0.00355
 286,0.00004057,0.00005682,-0.00004549,0.00007375,0.00008433,-0.0000456
 2,0.00003631,0.00010581,-0.00006766,-0.00031615,-0.00054715,-0.0238202
 9,-0.01720446,-0.02984188,-0.00363091,0.00035694,-0.00220356,-0.003641
 85,-0.00207922,-0.00079830,-0.08968059,-0.02567351,-0.04443998,0.00601
 572,0.00309872,0.00406210,0.00599289,0.00193515,0.00465936,0.55604600,
 0.00016721,0.00022844,-0.00025131,0.00003001,0.00001429,0.00001759,0.0
 0000149,-0.00003909,-0.00001051,-0.00001103,0.00009337,0.00005885,-0.0
 0871840,0.00081268,-0.00356658,0.00071617,0.00067152,0.00049875,-0.002
 22574,-0.00083320,-0.00036063,-0.02559213,-0.11934966,-0.07335468,0.00
 334998,0.00893568,0.00588177,-0.00717951,-0.01071804,-0.02139491,-0.00
 071191,0.52294584,0.00027591,-0.00025170,-0.00006023,0.00001896,0.0000
 2047,-0.00003473,0.00003534,-0.00001310,0.00001878,-0.00001951,0.00005
 781,0.00015922,-0.01516693,-0.00359533,-0.00341065,-0.00216583,0.00051
 411,-0.00076556,-0.00046819,-0.00037668,0.00074980,-0.04429929,-0.0733
 5495,-0.20398245,-0.00634088,-0.01004924,-0.01964619,-0.00026517,-0.00
 543395,0.00003008,-0.00110713,0.00598516,0.52982965,-0.00009474,-0.000
 00081,0.00005577,0.00002507,0.00001053,0.00000541,0.00000797,0.0000011
 6,0.00002433,-0.00001024,-0.00000269,-0.00001027,-0.00139059,-0.000064
 30,-0.00287510,-0.00004939,0.00002578,-0.00003959,-0.00038672,-0.00027
 330,0.00058877,0.00602658,0.00338778,-0.00627946,-0.00046805,-0.000887
 16,-0.00083732,0.00006954,0.00012949,0.00027646,-0.06649880,-0.0350576
 8,0.06368773,0.07303858,-0.00002054,-0.00004864,0.00000730,0.00000440,
 0.00001080,-0.00002188,0.00000392,-0.00001180,0.00001213,-0.00000567,-
 0.00000148,-0.00000136,-0.00002918,0.00037157,-0.00045497,0.00004532,-
 0.00002582,0.00001690,0.00008836,-0.00026035,0.00037784,0.00300488,0.0
 0901192,-0.01004533,-0.00089217,-0.00083611,-0.00135579,0.00017968,0.0
 0019247,0.00000731,-0.03679435,-0.09042426,0.08884706,0.04128290,0.091
 82291,0.00008507,-0.00000037,0.00006878,0.00001188,0.00000252,-0.00000
 393,0.00002304,0.00001045,0.00001643,-0.00000817,0.00001183,0.00002617
 ,-0.00264941,-0.00017471,-0.00270606,-0.00002176,0.00002815,-0.0000752
 2,-0.00062653,-0.00027223,-0.00043044,0.00402604,0.00592817,-0.0195026
 2,-0.00087432,-0.00137279,-0.00146134,0.00024965,0.00001272,0.00019739
 ,0.06556348,0.08650810,-0.19636458,-0.06940984,-0.09538886,0.21810592,
 -0.00009444,0.00004902,0.00002712,0.00000803,0.00002045,0.00001320,0.0
 0002506,-0.00000057,0.00001187,-0.00001024,-0.00000750,-0.00000742,-0.
 00139971,-0.00245779,-0.00149500,-0.00038587,0.00064608,0.00005567,-0.
 00004970,-0.00004724,0.00000254,0.00600398,-0.00714493,-0.00020175,0.0
 0006953,0.00017538,0.00024996,-0.00046572,-0.00028059,-0.00118650,-0.0
 6606974,0.07215908,0.00133086,0.00431872,-0.00526593,0.00083334,0.0725
 6150,0.00008428,0.00003618,0.00004873,0.00001796,-0.00000046,0.0000170
 3,0.00000805,0.00000808,0.00000095,-0.00000421,0.00001480,0.00002119,-
 0.00228024,-0.00165421,-0.00134807,-0.00058644,-0.00043389,-0.00037312
 ,-0.00004156,-0.00008214,-0.00000448,0.00195089,-0.01061303,-0.0053708
 6,0.00012709,0.00018658,0.00000926,-0.00031014,-0.00012442,-0.00096125
 ,0.07465503,-0.24624874,-0.00279692,0.00328729,-0.01407565,0.00446508,
 -0.08018465,0.26963609,0.00002466,0.00005634,-0.00001635,0.00001495,0.
 00001871,0.00000503,0.00000972,-0.00002346,-0.00000120,-0.00000900,0.0
 0000800,0.00000990,-0.00135285,-0.00162904,-0.00067120,-0.00023511,0.0
 0027989,-0.00025720,0.00002832,-0.00001583,-0.00001858,0.00455982,-0.0
 2137390,0.00014501,0.00028006,0.00000385,0.00020311,-0.00120925,-0.000
 94412,-0.00217535,0.00076815,-0.00046053,-0.04096936,-0.00408573,0.018
 26637,-0.00100108,0.00123264,0.00653086,0.04076958,-0.00019920,-0.0000
 2737,-0.00004843,-0.00000341,0.00001517,-0.00000397,-0.00000348,-0.000
 01107,0.00001111,0.00000654,-0.00002469,-0.00004265,-0.00045458,-0.000
 51238,-0.00088886,0.00006193,-0.00005825,0.00002504,0.00006236,0.00005
 052,-0.00003783,-0.02527313,-0.00900555,-0.01566957,-0.00144481,-0.000
 12901,-0.00259631,-0.00145324,-0.00218417,-0.00141264,-0.27743203,0.00
 265976,0.00392224,-0.01122233,-0.00155425,0.00310169,-0.01114494,0.003
 50638,0.00017289,0.54258357,-0.00045934,0.00013100,0.00000832,0.000028
 29,0.00003548,0.00003737,0.00001783,-0.00001673,0.00002390,-0.00000891
 ,-0.00005047,-0.00006970,-0.00038571,-0.00054635,-0.00159303,-0.000047
 59,-0.00006755,-0.00003654,0.00005539,-0.00002331,-0.00004319,-0.01769
 627,0.00109751,-0.00366144,-0.00002867,0.00030103,-0.00014361,-0.00228
 949,-0.00155927,-0.00150568,0.00209501,-0.07735032,0.00038471,-0.01181
 992,0.00403231,0.00017055,0.02260232,0.00322226,-0.00056444,0.00746813
 ,0.52640721,-0.00079543,0.00000978,0.00013952,0.00003694,0.00005395,0.
 00001856,0.00004284,0.00000718,0.00007083,-0.00001535,-0.00006976,-0.0
 0013086,-0.00066979,-0.00159345,-0.00238372,0.00003672,-0.00006904,-0.
 00006898,-0.00002266,-0.00001074,-0.00011366,-0.03069829,-0.00363198,-
 0.00320462,-0.00266063,-0.00042775,-0.00252175,-0.00135691,-0.00122154
 ,-0.00065300,0.00294563,0.00038662,-0.07689014,0.01922557,-0.00018011,
 0.00305037,-0.00068099,-0.00024370,0.00378305,0.01298669,0.00886907,0.
 53667422,0.00007094,0.00000835,-0.00003040,-0.00000974,-0.00000784,0.0
 0000088,-0.00001429,-0.00000429,-0.00001372,0.00000265,0.00000407,0.00
 001068,0.00003415,0.00006965,0.00005413,0.00000218,-0.00000022,0.00002
 100,0.00003163,0.00001361,0.00000752,-0.00290551,-0.00196106,-0.000477
 70,0.00016269,0.00027564,-0.00024418,-0.00005442,-0.00005770,0.0000233
 3,-0.01175513,-0.01206790,0.02122203,-0.00313023,0.00030086,-0.0005723
 5,0.00026210,0.00012696,0.00018508,-0.07228359,-0.04142400,0.07206229,
 0.08157970,0.00004557,-0.00000935,0.,-0.00001176,-0.00000809,-0.000003
 16,-0.00001117,0.00000518,-0.00000710,0.00000027,0.00000434,0.00000487
 ,0.00003408,-0.00002577,-0.00002509,0.00002341,0.00001646,0.00000016,0
 .00001599,-0.00000609,0.00000895,-0.00184434,-0.00074386,-0.00030082,-
 0.00008721,-0.00016764,-0.00014311,-0.00007253,-0.00010361,-0.00002091
 ,-0.00204077,0.00369488,-0.00007886,0.00034077,0.00035187,0.00014756,0
 .00012619,0.00007823,-0.00015330,-0.04278168,-0.09574574,0.09657244,0.
 04918580,0.10021980,-0.00000347,-0.00000312,-0.00001095,-0.00000623,-0
 .00000292,0.00000006,-0.00001095,-0.00000191,-0.00000186,0.00000120,-0
 .00000178,-0.00000302,-0.00001595,-0.00002889,-0.00007431,0.00001022,0
 .00000024,0.00001330,0.00000645,0.00000665,-0.00001294,-0.00076745,-0.
 00038173,0.00066355,0.00085269,0.00048206,-0.00020738,-0.00001126,-0.0
 0002476,-0.00001782,0.00376407,-0.00028392,0.00407575,-0.00052376,0.00
 006756,0.00006890,0.00024957,-0.00010607,-0.00003932,0.07381109,0.0962
 1848,-0.20687559,-0.08282952,-0.10859786,0.22379483,-0.00017247,0.0000
 0725,0.00001199,0.00000436,0.00001120,0.00000585,0.00000434,-0.0000005
 2,0.00001263,-0.00000226,-0.00001648,-0.00002852,-0.00004137,-0.000320
 84,-0.00055517,0.00001365,-0.00002265,-0.00000846,0.00001371,0.0000039
 2,-0.00002384,-0.00333801,0.00038217,0.00064842,-0.00000744,0.00004065
 ,0.00011110,-0.00000735,0.00007600,0.00009065,-0.01014271,-0.01197846,
 -0.02076008,-0.00049745,-0.00044512,0.00006560,-0.00049458,0.00028011,
 -0.00035336,-0.07000947,-0.04066566,-0.07042496,0.00396089,0.00271572,
 0.00517923,0.07677000,0.00002304,-0.00000570,0.00000782,0.00000027,-0.
 00000158,-0.00000192,0.00000029,0.00000252,-0.00000043,-0.00000009,0.0
 0000320,0.00000367,-0.00001572,0.00008679,0.00004746,-0.00001068,0.000
 00422,0.00000108,-0.00000774,-0.00000285,-0.00000196,0.00023494,0.0002
 5533,-0.00014297,0.00001621,-0.00001026,0.00001647,0.00002718,0.000003
 40,0.00000478,-0.00179785,0.00351308,0.00016350,-0.00051287,-0.0002109
 5,0.00001653,0.00022507,0.00000032,0.00010985,-0.04216366,-0.09680061,
 -0.09880378,0.00253345,0.00712001,0.00813316,0.04684461,0.10020277,0.0
 0003929,0.00000777,0.00000339,0.00000049,-0.00000276,0.00000119,0.0000
 0050,0.00000044,-0.00000289,-0.00000017,0.00000361,0.00000733,-0.00002
 753,0.00004642,0.00013950,-0.00001503,0.00000205,-0.00000340,-0.000016
 75,-0.00000294,0.00000360,0.00039381,-0.00014247,0.00009344,0.00004066
 ,-0.00000304,0.00001606,0.00003439,0.00002454,0.00000231,-0.00315493,0
 .00012900,0.00362741,-0.00003695,-0.00001401,0.00007372,-0.00046314,0.
 00014081,-0.00014042,-0.07301542,-0.09879871,-0.21084582,-0.00474685,-
 0.00812699,-0.02121298,0.08114505,0.11084771,0.22815614,0.00007072,-0.
 00003075,-0.00000780,-0.00001429,-0.00000969,-0.00001060,-0.00000969,0
 .00000470,-0.00000635,0.00000266,0.00000721,0.00000883,0.00003392,0.00
 001201,0.00008742,0.00003157,-0.00000043,0.00001560,0.00000216,0.00001
 835,0.00001026,-0.00289641,0.00057363,-0.00194053,-0.00005401,0.000049
 06,-0.00003822,0.00016317,-0.00035019,0.00011855,-0.01167108,0.0244590
 5,0.00009994,0.00026210,0.00009685,0.00020263,-0.00313394,-0.00063674,
 -0.00003100,-0.07179010,0.08255853,-0.00001178,0.00404599,-0.00563836,
 0.00029409,0.00394617,-0.00539644,-0.00017744,0.08101109,-0.00002596,-
 0.00000904,-0.00000306,-0.00000386,0.00000383,-0.00000268,0.00000050,0
 .00000065,0.00000214,0.00000090,-0.00000255,-0.00000576,-0.00003097,-0
 .00003884,-0.00003675,-0.00000254,-0.00001797,-0.00000024,-0.00000278,
 0.00001387,-0.00000126,0.00026441,0.00060603,0.00040267,0.00002647,-0.
 00001964,0.00002385,0.00078041,-0.00034530,0.00038153,0.00432679,0.004
 05342,-0.00002203,0.00015304,0.00010132,-0.00009269,-0.00061440,0.0000
 5001,-0.00010926,0.08475206,-0.26306645,0.00035285,0.00300461,-0.01468
 057,0.00452480,0.00308811,-0.01415968,-0.00411144,-0.09571676,0.287510
 94,0.00003791,-0.00000007,-0.00001105,-0.00001519,-0.00000787,-0.00000
 051,-0.00001330,0.00000192,-0.00000872,0.00000083,0.00000093,0.0000038
 6,0.00002165,-0.00003269,-0.00006100,0.00001714,0.00000206,-0.00000099
 ,0.00002536,-0.00000135,0.00001591,-0.00198366,0.00048424,-0.00069544,
 -0.00006832,0.00002783,-0.00010219,0.00034935,-0.00024624,-0.00003020,
 0.00008326,0.00021727,0.00363316,0.00023400,-0.00014011,-0.00006240,0.
 00002806,-0.00002948,0.00037447,-0.00031516,0.00070398,-0.04004839,-0.
 00467217,0.02072319,-0.00016025,0.00488386,-0.02040096,0.00008144,0.00
 138640,-0.00130269,0.03707230\\0.00007249,0.00008031,0.00013650,0.0000
 0413,-0.00005775,-0.00002329,0.00000489,0.00000875,-0.00006041,-0.0000
 7765,-0.00000932,-0.00001452,0.00008596,-0.00006978,-0.00011976,-0.000
 01844,0.00013136,-0.00004938,-0.00001938,-0.00010757,0.00008944,-0.000
 11506,0.00008172,0.00014070,0.00001765,0.00009897,-0.00008566,0.000017
 63,-0.00012424,0.00004265,0.00010202,-0.00006371,-0.00011014,-0.000015
 90,-0.00010677,0.00009135,-0.00001541,0.00013240,-0.00004705,-0.000173
 46,-0.00000752,-0.00001361,0.00004428,0.00002268,-0.00003670,0.0000421
 2,0.00003371,0.00005843,0.00004414,-0.00004324,0.00000143\\\@


 Make no judgements where you have no compassion.
                               -- Anne McCaffrey
 Job cpu time:       0 days  0 hours  0 minutes  2.8 seconds.
 Elapsed time:       0 days  0 hours  0 minutes  3.1 seconds.
 File lengths (MBytes):  RWF=     10 Int=      0 D2E=      0 Chk=      2 Scr=      1
 Normal termination of Gaussian 16 at Fri Nov  3 15:08:17 2017.
