 Entering Gaussian System, Link 0=g16
 Input=pentane_conformation_3.gjf
 Output=pentane_conformation_3.out
 Initial command:
 /n/sw/g16_nehalem/g16/l1.exe "/scratch/dhuang9_pentane_conformation_3/Gau-52198.inp" -scrdir="/scratch/dhuang9_pentane_conformation_3/"
 Entering Link 1 = /n/sw/g16_nehalem/g16/l1.exe PID=     52207.
  
 Copyright (c) 1988,1990,1992,1993,1995,1998,2003,2009,2016,
            Gaussian, Inc.  All Rights Reserved.
  
 This is part of the Gaussian(R) 16 program.  It is based on
 the Gaussian(R) 09 system (copyright 2009, Gaussian, Inc.),
 the Gaussian(R) 03 system (copyright 2003, Gaussian, Inc.),
 the Gaussian(R) 98 system (copyright 1998, Gaussian, Inc.),
 the Gaussian(R) 94 system (copyright 1995, Gaussian, Inc.),
 the Gaussian 92(TM) system (copyright 1992, Gaussian, Inc.),
 the Gaussian 90(TM) system (copyright 1990, Gaussian, Inc.),
 the Gaussian 88(TM) system (copyright 1988, Gaussian, Inc.),
 the Gaussian 86(TM) system (copyright 1986, Carnegie Mellon
 University), and the Gaussian 82(TM) system (copyright 1983,
 Carnegie Mellon University). Gaussian is a federally registered
 trademark of Gaussian, Inc.
  
 This software contains proprietary and confidential information,
 including trade secrets, belonging to Gaussian, Inc.
  
 This software is provided under written license and may be
 used, copied, transmitted, or stored only in accord with that
 written license.
  
 The following legend is applicable only to US Government
 contracts under FAR:
  
                    RESTRICTED RIGHTS LEGEND
  
 Use, reproduction and disclosure by the US Government is
 subject to restrictions as set forth in subparagraphs (a)
 and (c) of the Commercial Computer Software - Restricted
 Rights clause in FAR 52.227-19.
  
 Gaussian, Inc.
 340 Quinnipiac St., Bldg. 40, Wallingford CT 06492
  
  
 ---------------------------------------------------------------
 Warning -- This program may not be used in any manner that
 competes with the business of Gaussian, Inc. or will provide
 assistance to any competitor of Gaussian, Inc.  The licensee
 of this program is prohibited from giving any competitor of
 Gaussian, Inc. access to this program.  By using this program,
 the user acknowledges that Gaussian, Inc. is engaged in the
 business of creating and licensing software in the field of
 computational chemistry and represents and warrants to the
 licensee that it is not a competitor of Gaussian, Inc. and that
 it will not use this program in any manner prohibited above.
 ---------------------------------------------------------------
  

 Cite this work as:
 Gaussian 16, Revision A.03,
 M. J. Frisch, G. W. Trucks, H. B. Schlegel, G. E. Scuseria, 
 M. A. Robb, J. R. Cheeseman, G. Scalmani, V. Barone, 
 G. A. Petersson, H. Nakatsuji, X. Li, M. Caricato, A. V. Marenich, 
 J. Bloino, B. G. Janesko, R. Gomperts, B. Mennucci, H. P. Hratchian, 
 J. V. Ortiz, A. F. Izmaylov, J. L. Sonnenberg, D. Williams-Young, 
 F. Ding, F. Lipparini, F. Egidi, J. Goings, B. Peng, A. Petrone, 
 T. Henderson, D. Ranasinghe, V. G. Zakrzewski, J. Gao, N. Rega, 
 G. Zheng, W. Liang, M. Hada, M. Ehara, K. Toyota, R. Fukuda, 
 J. Hasegawa, M. Ishida, T. Nakajima, Y. Honda, O. Kitao, H. Nakai, 
 T. Vreven, K. Throssell, J. A. Montgomery, Jr., J. E. Peralta, 
 F. Ogliaro, M. J. Bearpark, J. J. Heyd, E. N. Brothers, K. N. Kudin, 
 V. N. Staroverov, T. A. Keith, R. Kobayashi, J. Normand, 
 K. Raghavachari, A. P. Rendell, J. C. Burant, S. S. Iyengar, 
 J. Tomasi, M. Cossi, J. M. Millam, M. Klene, C. Adamo, R. Cammi, 
 J. W. Ochterski, R. L. Martin, K. Morokuma, O. Farkas, 
 J. B. Foresman, and D. J. Fox, Gaussian, Inc., Wallingford CT, 2016.
 
 ******************************************
 Gaussian 16:  ES64L-G16RevA.03 25-Dec-2016
                 3-Nov-2017 
 ******************************************
 %mem=1GB
 ------------------------
 #p pddg opt freq=noraman
 ------------------------
 1/18=20,19=15,26=1,38=1/1,3;
 2/9=110,12=2,17=6,18=5,40=1/2;
 3/5=2,25=1,41=4000000,71=1/1,2,3;
 4/35=1/1;
 5/5=2,35=1,38=5/2;
 6/7=2,8=2,9=2,10=2,28=1/1;
 7//1,2,3,16;
 1/18=20,19=15,26=1/3(2);
 2/9=110/2;
 99//99;
 2/9=110/2;
 3/5=2,25=1,41=4000000,71=1,135=20/1,2,3;
 4/5=5,16=3,35=1/1;
 5/5=2,35=1,38=5/2;
 7//1,2,3,16;
 1/18=20,19=15,26=1/3(-5);
 2/9=110/2;
 6/7=2,8=2,9=2,10=2,19=2,28=1/1;
 99/9=1/99;
 Leave Link    1 at Fri Nov  3 15:08:03 2017, MaxMem=   134217728 cpu:               0.1 elap:               0.1
 (Enter /n/sw/g16_nehalem/g16/l101.exe)
 ----------------------
 pentane conformation 3
 ----------------------
 Symbolic Z-matrix:
 Charge =  0 Multiplicity = 1
 C                    -5.54839   0.96774   0. 
 H                    -5.19171   1.47214   0.87365 
 H                    -6.61839   0.96776   0. 
 C                    -5.03507  -0.48419   0. 
 H                    -5.39175  -0.98859  -0.87365 
 H                    -5.39174  -0.98859   0.87365 
 C                    -3.49507  -0.48421  0. 
 H                    -3.13842  -1.49302   0. 
 H                    -3.1384    0.02019  -0.87365 
 C                    -2.98173   0.24175   1.2574 
 H                    -1.9983   -0.10713   1.49416 
 H                    -2.95176   1.29543   1.07365 
 H                    -3.63845   0.04135   2.07804 
 C                    -5.03504   1.6937   -1.2574 
 H                    -5.75241   2.42585  -1.56439 
 H                    -4.10564   2.1757   -1.03652 
 H                    -4.89041   0.98395  -2.04495 
 
 ITRead=  0  0  0  0  0  0  0  0  0  0  0  0  0  0  0  0  0
 MicOpt= -1 -1 -1 -1 -1 -1 -1 -1 -1 -1 -1 -1 -1 -1 -1 -1 -1
 NAtoms=     17 NQM=       17 NQMF=       0 NMMI=      0 NMMIF=      0
                NMic=       0 NMicF=      0.
                    Isotopes and Nuclear Properties:
 (Nuclear quadrupole moments (NQMom) in fm**2, nuclear magnetic moments (NMagM)
  in nuclear magnetons)

  Atom         1           2           3           4           5           6           7           8           9          10
 IAtWgt=          12           1           1          12           1           1          12           1           1          12
 AtmWgt=  12.0000000   1.0078250   1.0078250  12.0000000   1.0078250   1.0078250  12.0000000   1.0078250   1.0078250  12.0000000
 NucSpn=           0           1           1           0           1           1           0           1           1           0
 AtZEff=   0.0000000   0.0000000   0.0000000   0.0000000   0.0000000   0.0000000   0.0000000   0.0000000   0.0000000   0.0000000
 NQMom=    0.0000000   0.0000000   0.0000000   0.0000000   0.0000000   0.0000000   0.0000000   0.0000000   0.0000000   0.0000000
 NMagM=    0.0000000   2.7928460   2.7928460   0.0000000   2.7928460   2.7928460   0.0000000   2.7928460   2.7928460   0.0000000
 AtZNuc=   6.0000000   1.0000000   1.0000000   6.0000000   1.0000000   1.0000000   6.0000000   1.0000000   1.0000000   6.0000000

  Atom        11          12          13          14          15          16          17
 IAtWgt=           1           1           1          12           1           1           1
 AtmWgt=   1.0078250   1.0078250   1.0078250  12.0000000   1.0078250   1.0078250   1.0078250
 NucSpn=           1           1           1           0           1           1           1
 AtZEff=   0.0000000   0.0000000   0.0000000   0.0000000   0.0000000   0.0000000   0.0000000
 NQMom=    0.0000000   0.0000000   0.0000000   0.0000000   0.0000000   0.0000000   0.0000000
 NMagM=    2.7928460   2.7928460   2.7928460   0.0000000   2.7928460   2.7928460   2.7928460
 AtZNuc=   1.0000000   1.0000000   1.0000000   6.0000000   1.0000000   1.0000000   1.0000000
 Leave Link  101 at Fri Nov  3 15:08:04 2017, MaxMem=   134217728 cpu:               0.6 elap:               0.8
 (Enter /n/sw/g16_nehalem/g16/l103.exe)

 GradGradGradGradGradGradGradGradGradGradGradGradGradGradGradGradGradGrad
 Berny optimization.
 Initialization pass.
                           ----------------------------
                           !    Initial Parameters    !
                           ! (Angstroms and Degrees)  !
 --------------------------                            --------------------------
 ! Name  Definition              Value          Derivative Info.                !
 --------------------------------------------------------------------------------
 ! R1    R(1,2)                  1.07           estimate D2E/DX2                !
 ! R2    R(1,3)                  1.07           estimate D2E/DX2                !
 ! R3    R(1,4)                  1.54           estimate D2E/DX2                !
 ! R4    R(1,14)                 1.54           estimate D2E/DX2                !
 ! R5    R(4,5)                  1.07           estimate D2E/DX2                !
 ! R6    R(4,6)                  1.07           estimate D2E/DX2                !
 ! R7    R(4,7)                  1.54           estimate D2E/DX2                !
 ! R8    R(7,8)                  1.07           estimate D2E/DX2                !
 ! R9    R(7,9)                  1.07           estimate D2E/DX2                !
 ! R10   R(7,10)                 1.54           estimate D2E/DX2                !
 ! R11   R(10,11)                1.07           estimate D2E/DX2                !
 ! R12   R(10,12)                1.07           estimate D2E/DX2                !
 ! R13   R(10,13)                1.07           estimate D2E/DX2                !
 ! R14   R(14,15)                1.07           estimate D2E/DX2                !
 ! R15   R(14,16)                1.07           estimate D2E/DX2                !
 ! R16   R(14,17)                1.07           estimate D2E/DX2                !
 ! A1    A(2,1,3)              109.4712         estimate D2E/DX2                !
 ! A2    A(2,1,4)              109.4712         estimate D2E/DX2                !
 ! A3    A(2,1,14)             109.4713         estimate D2E/DX2                !
 ! A4    A(3,1,4)              109.4712         estimate D2E/DX2                !
 ! A5    A(3,1,14)             109.4712         estimate D2E/DX2                !
 ! A6    A(4,1,14)             109.4712         estimate D2E/DX2                !
 ! A7    A(1,4,5)              109.4712         estimate D2E/DX2                !
 ! A8    A(1,4,6)              109.4712         estimate D2E/DX2                !
 ! A9    A(1,4,7)              109.4712         estimate D2E/DX2                !
 ! A10   A(5,4,6)              109.4712         estimate D2E/DX2                !
 ! A11   A(5,4,7)              109.4713         estimate D2E/DX2                !
 ! A12   A(6,4,7)              109.4712         estimate D2E/DX2                !
 ! A13   A(4,7,8)              109.4712         estimate D2E/DX2                !
 ! A14   A(4,7,9)              109.4712         estimate D2E/DX2                !
 ! A15   A(4,7,10)             109.4712         estimate D2E/DX2                !
 ! A16   A(8,7,9)              109.4713         estimate D2E/DX2                !
 ! A17   A(8,7,10)             109.4712         estimate D2E/DX2                !
 ! A18   A(9,7,10)             109.4712         estimate D2E/DX2                !
 ! A19   A(7,10,11)            109.4712         estimate D2E/DX2                !
 ! A20   A(7,10,12)            109.4712         estimate D2E/DX2                !
 ! A21   A(7,10,13)            109.4712         estimate D2E/DX2                !
 ! A22   A(11,10,12)           109.4713         estimate D2E/DX2                !
 ! A23   A(11,10,13)           109.4712         estimate D2E/DX2                !
 ! A24   A(12,10,13)           109.4712         estimate D2E/DX2                !
 ! A25   A(1,14,15)            109.4712         estimate D2E/DX2                !
 ! A26   A(1,14,16)            109.4712         estimate D2E/DX2                !
 ! A27   A(1,14,17)            109.4712         estimate D2E/DX2                !
 ! A28   A(15,14,16)           109.4713         estimate D2E/DX2                !
 ! A29   A(15,14,17)           109.4712         estimate D2E/DX2                !
 ! A30   A(16,14,17)           109.4712         estimate D2E/DX2                !
 ! D1    D(2,1,4,5)            179.9999         estimate D2E/DX2                !
 ! D2    D(2,1,4,6)             60.0            estimate D2E/DX2                !
 ! D3    D(2,1,4,7)            -60.0            estimate D2E/DX2                !
 ! D4    D(3,1,4,5)             60.0            estimate D2E/DX2                !
 ! D5    D(3,1,4,6)            -60.0            estimate D2E/DX2                !
 ! D6    D(3,1,4,7)            180.0            estimate D2E/DX2                !
 ! D7    D(14,1,4,5)           -60.0            estimate D2E/DX2                !
 ! D8    D(14,1,4,6)           180.0            estimate D2E/DX2                !
 ! D9    D(14,1,4,7)            60.0            estimate D2E/DX2                !
 ! D10   D(2,1,14,15)          -91.5517         estimate D2E/DX2                !
 ! D11   D(2,1,14,16)           28.4483         estimate D2E/DX2                !
 ! D12   D(2,1,14,17)          148.4483         estimate D2E/DX2                !
 ! D13   D(3,1,14,15)           28.4483         estimate D2E/DX2                !
 ! D14   D(3,1,14,16)          148.4483         estimate D2E/DX2                !
 ! D15   D(3,1,14,17)          -91.5517         estimate D2E/DX2                !
 ! D16   D(4,1,14,15)          148.4483         estimate D2E/DX2                !
 ! D17   D(4,1,14,16)          -91.5517         estimate D2E/DX2                !
 ! D18   D(4,1,14,17)           28.4483         estimate D2E/DX2                !
 ! D19   D(1,4,7,8)            179.9999         estimate D2E/DX2                !
 ! D20   D(1,4,7,9)            -60.0001         estimate D2E/DX2                !
 ! D21   D(1,4,7,10)            59.9999         estimate D2E/DX2                !
 ! D22   D(5,4,7,8)            -60.0002         estimate D2E/DX2                !
 ! D23   D(5,4,7,9)             59.9999         estimate D2E/DX2                !
 ! D24   D(5,4,7,10)           179.9999         estimate D2E/DX2                !
 ! D25   D(6,4,7,8)             59.9999         estimate D2E/DX2                !
 ! D26   D(6,4,7,9)            179.9999         estimate D2E/DX2                !
 ! D27   D(6,4,7,10)           -60.0001         estimate D2E/DX2                !
 ! D28   D(4,7,10,11)          155.365          estimate D2E/DX2                !
 ! D29   D(4,7,10,12)          -84.6349         estimate D2E/DX2                !
 ! D30   D(4,7,10,13)           35.365          estimate D2E/DX2                !
 ! D31   D(8,7,10,11)           35.3651         estimate D2E/DX2                !
 ! D32   D(8,7,10,12)          155.3651         estimate D2E/DX2                !
 ! D33   D(8,7,10,13)          -84.6349         estimate D2E/DX2                !
 ! D34   D(9,7,10,11)          -84.635          estimate D2E/DX2                !
 ! D35   D(9,7,10,12)           35.365          estimate D2E/DX2                !
 ! D36   D(9,7,10,13)          155.365          estimate D2E/DX2                !
 --------------------------------------------------------------------------------
 Trust Radius=3.00D-01 FncErr=1.00D-07 GrdErr=1.00D-07 EigMax=2.50D+02 EigMin=1.00D-04
 Number of steps in this run=     92 maximum allowed number of steps=    102.
 GradGradGradGradGradGradGradGradGradGradGradGradGradGradGradGradGradGrad

 Leave Link  103 at Fri Nov  3 15:08:04 2017, MaxMem=   134217728 cpu:               0.0 elap:               0.0
 (Enter /n/sw/g16_nehalem/g16/l202.exe)
                          Input orientation:                          
 ---------------------------------------------------------------------
 Center     Atomic      Atomic             Coordinates (Angstroms)
 Number     Number       Type             X           Y           Z
 ---------------------------------------------------------------------
      1          6           0       -5.548387    0.967742    0.000000
      2          1           0       -5.191714    1.472140    0.873652
      3          1           0       -6.618387    0.967755    0.000000
      4          6           0       -5.035071   -0.484190    0.000000
      5          1           0       -5.391745   -0.988589   -0.873651
      6          1           0       -5.391744   -0.988589    0.873652
      7          6           0       -3.495071   -0.484208   -0.000001
      8          1           0       -3.138417   -1.493018    0.000002
      9          1           0       -3.138400    0.020188   -0.873654
     10          6           0       -2.981729    0.241752    1.257402
     11          1           0       -1.998301   -0.107125    1.494161
     12          1           0       -2.951757    1.295430    1.073652
     13          1           0       -3.638454    0.041351    2.078042
     14          6           0       -5.035045    1.693698   -1.257405
     15          1           0       -5.752409    2.425850   -1.564394
     16          1           0       -4.105643    2.175696   -1.036518
     17          1           0       -4.890410    0.983947   -2.044954
 ---------------------------------------------------------------------
                    Distance matrix (angstroms):
                    1          2          3          4          5
     1  C    0.000000
     2  H    1.070000   0.000000
     3  H    1.070000   1.747303   0.000000
     4  C    1.540000   2.148263   2.148263   0.000000
     5  H    2.148263   3.024610   2.468845   1.070000   0.000000
     6  H    2.148263   2.468845   2.468846   1.070000   1.747303
     7  C    2.514809   2.732977   3.444314   1.540000   2.148263
     8  H    3.444314   3.710992   4.262112   2.148263   2.468847
     9  H    2.732978   3.062244   3.710993   2.148263   2.468845
    10  C    2.948874   2.558350   3.915792   2.514810   3.444315
    11  H    3.998871   3.616214   4.973237   3.405388   4.230718
    12  H    2.828886   2.255800   3.834615   2.942783   3.868109
    13  H    2.970573   2.431117   3.749198   2.558318   3.584313
    14  C    1.540000   2.148263   2.148263   2.514809   2.732977
    15  H    2.148263   2.677313   2.307225   3.380863   3.502227
    16  H    2.148263   2.307225   2.974453   3.002199   3.419544
    17  H    2.148263   2.974454   2.677313   2.521545   2.348230
                    6          7          8          9         10
     6  H    0.000000
     7  C    2.148263   0.000000
     8  H    2.468845   1.070000   0.000000
     9  H    3.024610   1.070000   1.747303   0.000000
    10  C    2.732979   1.540000   2.148263   2.148263   0.000000
    11  H    3.560542   2.148263   2.335182   2.631079   1.070000
    12  H    3.348175   2.148263   2.993829   2.335182   1.070000
    13  H    2.363336   2.148263   2.631079   2.993829   1.070000
    14  C    3.444314   2.948874   3.915793   2.558352   3.556474
    15  H    4.211002   4.001417   4.963650   3.619030   4.517686
    16  H    3.913502   2.919290   3.933111   2.368185   3.203965
    17  H    3.558158   2.878243   3.658781   2.317394   3.885804
                   11         12         13         14         15
    11  H    0.000000
    12  H    1.747303   0.000000
    13  H    1.747303   1.747303   0.000000
    14  C    4.476147   3.151592   3.975666   0.000000
    15  H    5.464801   4.010086   4.839626   1.070000   0.000000
    16  H    4.007056   2.561082   3.804495   1.070000   1.747303
    17  H    4.698943   3.685254   4.410779   1.070000   1.747303
                   16         17
    16  H    0.000000
    17  H    1.747303   0.000000
 Stoichiometry    C5H12
 Framework group  C1[X(C5H12)]
 Deg. of freedom    45
 Full point group                 C1      NOp   1
 Largest Abelian subgroup         C1      NOp   1
 Largest concise Abelian subgroup C1      NOp   1
                         Standard orientation:                         
 ---------------------------------------------------------------------
 Center     Atomic      Atomic             Coordinates (Angstroms)
 Number     Number       Type             X           Y           Z
 ---------------------------------------------------------------------
      1          6           0       -1.054324    0.211695   -0.685177
      2          1           0       -0.578259   -0.406069   -1.417727
      3          1           0       -1.786875    0.829459   -1.161241
      4          6           0        0.000000    1.100815    0.000000
      5          1           0       -0.476065    1.718580    0.732549
      6          1           0        0.476064    1.718580   -0.732550
      7          6           0        1.054324    0.211696    0.685176
      8          1           0        1.786875    0.829462    1.161238
      9          1           0        0.578260   -0.406067    1.417728
     10          6           0        1.739499   -0.677425   -0.369147
     11          1           0        2.710683   -0.960362   -0.020365
     12          1           0        1.149793   -1.555047   -0.533238
     13          1           0        1.834085   -0.134633   -1.286387
     14          6           0       -1.739499   -0.677425    0.369148
     15          1           0       -2.752347   -0.861042    0.077046
     16          1           0       -1.216188   -1.607570    0.445800
     17          1           0       -1.726026   -0.181427    1.317148
 ---------------------------------------------------------------------
 Rotational constants (GHZ):           7.5039546           3.2103959           2.9350270
 Leave Link  202 at Fri Nov  3 15:08:04 2017, MaxMem=   134217728 cpu:               0.0 elap:               0.1
 (Enter /n/sw/g16_nehalem/g16/l301.exe)
 Standard basis: VSTO-6G (5D, 7F)
 Ernie: Thresh=  0.10000D-02 Tol=  0.10000D-05 Strict=F.
  NNHCO=     0 NNPyr=     0 NCTC=     0               EPep=         0.000000000
    EC=        95.693227387  ECS=         1.930763169   EG=         0.557131214
   EHC=         0.000000000  EAt=       -26.628119222  AtH=         2.358010613
 EPDDG=        -0.000854656  ECC=        98.180267114 EAtT=        28.986129834
 There are    32 symmetry adapted cartesian basis functions of A   symmetry.
 There are    32 symmetry adapted basis functions of A   symmetry.
    32 basis functions,   192 primitive gaussians,    32 cartesian basis functions
    16 alpha electrons       16 beta electrons
       nuclear repulsion energy       127.1663969483 Hartrees.
 IExCor=    0 DFT=F Ex=HF Corr=None ExCW=0 ScaHFX=  1.000000
 ScaDFX=  1.000000  1.000000  1.000000  1.000000 ScalE2=  1.000000  1.000000
 IRadAn=      5 IRanWt=     -1 IRanGd=            0 ICorTp=0 IEmpDi=  4
 Integral buffers will be    131072 words long.
 Regular integral format.
 Two-electron integral symmetry is turned off.
 Leave Link  301 at Fri Nov  3 15:08:04 2017, MaxMem=   134217728 cpu:               0.2 elap:               0.2
 (Enter /n/sw/g16_nehalem/g16/l302.exe)
 Do NDO integrals.
 NPDir=0 NMtPBC=     1 NCelOv=     1 NCel=       1 NClECP=     1 NCelD=      1
         NCelK=      1 NCelE2=     1 NClLst=     1 CellRange=     0.0.
 One-electron integrals computed using PRISM.
 NBasis=    32 RedAO= F EigKep=  0.00D+00  NBF=    32
 NBsUse=    32 1.00D-04 EigRej=  0.00D+00 NBFU=    32
 Leave Link  302 at Fri Nov  3 15:08:05 2017, MaxMem=   134217728 cpu:               0.3 elap:               0.4
 (Enter /n/sw/g16_nehalem/g16/l303.exe)
 DipDrv:  MaxL=1.
 Leave Link  303 at Fri Nov  3 15:08:05 2017, MaxMem=   134217728 cpu:               0.1 elap:               0.1
 (Enter /n/sw/g16_nehalem/g16/l401.exe)
 Simple Huckel Guess.
 JPrj=0 DoOrth=F DoCkMO=F.
 Leave Link  401 at Fri Nov  3 15:08:05 2017, MaxMem=   134217728 cpu:               0.1 elap:               0.2
 (Enter /n/sw/g16_nehalem/g16/l502.exe)
 Keep J ints in memory in canonical form, NReq=861453.
 FoFCou: FMM=F IPFlag=           0 FMFlag=           0 FMFlg1=           0
         NFxFlg=           0 DoJE=F BraDBF=F KetDBF=F FulRan=T
         wScrn=  0.000000 ICntrl=       600 IOpCl=  2 I1Cent=           0 NGrid=           0
         NMat0=    1 NMatS0=     62 NMatT0=    0 NMatD0=    1 NMtDS0=    0 NMtDT0=    0
 Symmetry not used in FoFCou.
 Two-electron integral symmetry not used.
 Closed shell SCF:
 Using DIIS extrapolation, IDIIS=  1040.
 Overlap will be assumed to be unity.
 NGot=   134217728 LenX=   134153800 LenY=   134152335
 Requested convergence on RMS density matrix=1.00D-08 within 128 cycles.
 Requested convergence on MAX density matrix=1.00D-06.
 Requested convergence on             energy=1.00D-06.
 No special actions if energy rises.

 Cycle   1  Pass 1  IDiag  1:
 E= 0.127959398645288    
 DIIS: error= 3.18D-02 at cycle   1 NSaved=   1.
 NSaved= 1 IEnMin= 1 EnMin= 0.127959398645288     IErMin= 1 ErrMin= 3.18D-02
 ErrMax= 3.18D-02  0.00D+00 EMaxC= 1.00D-01 BMatC= 6.96D-02 BMatP= 6.96D-02
 IDIUse=3 WtCom= 6.82D-01 WtEn= 3.18D-01
 Coeff-Com:  0.100D+01
 Coeff-En:   0.100D+01
 Coeff:      0.100D+01
 GapD=    2.000 DampG=2.000 DampE=0.500 DampFc=1.0000 IDamp=-1.
 RMSDP=1.07D-02 MaxDP=1.02D-01              OVMax= 0.00D+00

 Cycle   2  Pass 1  IDiag  1:
 E=-0.289546625322998E-01 Delta-E=       -0.156914061178 Rises=F Damp=F
 DIIS: error= 8.35D-03 at cycle   2 NSaved=   2.
 NSaved= 2 IEnMin= 2 EnMin=-0.289546625322998E-01 IErMin= 2 ErrMin= 8.35D-03
 ErrMax= 8.35D-03  0.00D+00 EMaxC= 1.00D-01 BMatC= 4.39D-03 BMatP= 6.96D-02
 IDIUse=3 WtCom= 9.17D-01 WtEn= 8.35D-02
 Coeff-Com: -0.318D+00 0.132D+01
 Coeff-En:   0.000D+00 0.100D+01
 Coeff:     -0.291D+00 0.129D+01
 RMSDP=3.67D-03 MaxDP=3.36D-02 DE=-1.57D-01 OVMax= 0.00D+00

 Cycle   3  Pass 1  IDiag  3:
 E=-0.404858681938975E-01 Delta-E=       -0.011531205662 Rises=F Damp=F
 DIIS: error= 7.74D-04 at cycle   3 NSaved=   3.
 NSaved= 3 IEnMin= 3 EnMin=-0.404858681938975E-01 IErMin= 3 ErrMin= 7.74D-04
 ErrMax= 7.74D-04  0.00D+00 EMaxC= 1.00D-01 BMatC= 5.09D-05 BMatP= 4.39D-03
 IDIUse=3 WtCom= 9.92D-01 WtEn= 7.74D-03
 Coeff-Com:  0.114D+00-0.528D+00 0.141D+01
 Coeff-En:   0.000D+00 0.000D+00 0.100D+01
 Coeff:      0.113D+00-0.524D+00 0.141D+01
 Gap=     0.553 Goal=   None    Shift=    0.000
 RMSDP=6.11D-04 MaxDP=3.54D-03 DE=-1.15D-02 OVMax= 4.92D-03

 Cycle   4  Pass 1  IDiag  3:
 E=-0.407211601909125E-01 Delta-E=       -0.000235291997 Rises=F Damp=F
 DIIS: error= 2.51D-04 at cycle   4 NSaved=   4.
 NSaved= 4 IEnMin= 4 EnMin=-0.407211601909125E-01 IErMin= 4 ErrMin= 2.51D-04
 ErrMax= 2.51D-04  0.00D+00 EMaxC= 1.00D-01 BMatC= 3.60D-06 BMatP= 5.09D-05
 IDIUse=3 WtCom= 9.97D-01 WtEn= 2.51D-03
 Coeff-Com: -0.706D-01 0.334D+00-0.107D+01 0.181D+01
 Coeff-En:   0.000D+00 0.000D+00 0.000D+00 0.100D+01
 Coeff:     -0.705D-01 0.333D+00-0.107D+01 0.181D+01
 Gap=     0.555 Goal=   None    Shift=    0.000
 RMSDP=2.53D-04 MaxDP=1.76D-03 DE=-2.35D-04 OVMax= 1.76D-03

 Cycle   5  Pass 1  IDiag  3:
 E=-0.407438242539939E-01 Delta-E=       -0.000022664063 Rises=F Damp=F
 DIIS: error= 3.57D-05 at cycle   5 NSaved=   5.
 NSaved= 5 IEnMin= 5 EnMin=-0.407438242539939E-01 IErMin= 5 ErrMin= 3.57D-05
 ErrMax= 3.57D-05  0.00D+00 EMaxC= 1.00D-01 BMatC= 5.41D-08 BMatP= 3.60D-06
 IDIUse=1 WtCom= 1.00D+00 WtEn= 0.00D+00
 Coeff-Com:  0.127D-01-0.601D-01 0.196D+00-0.374D+00 0.123D+01
 Coeff:      0.127D-01-0.601D-01 0.196D+00-0.374D+00 0.123D+01
 Gap=     0.554 Goal=   None    Shift=    0.000
 RMSDP=2.00D-05 MaxDP=1.89D-04 DE=-2.27D-05 OVMax= 1.15D-04

 Cycle   6  Pass 1  IDiag  3:
 E=-0.407440849870682E-01 Delta-E=       -0.000000260733 Rises=F Damp=F
 DIIS: error= 1.12D-05 at cycle   6 NSaved=   6.
 NSaved= 6 IEnMin= 6 EnMin=-0.407440849870682E-01 IErMin= 6 ErrMin= 1.12D-05
 ErrMax= 1.12D-05  0.00D+00 EMaxC= 1.00D-01 BMatC= 6.77D-09 BMatP= 5.41D-08
 IDIUse=1 WtCom= 1.00D+00 WtEn= 0.00D+00
 Coeff-Com: -0.397D-02 0.185D-01-0.582D-01 0.109D+00-0.607D+00 0.154D+01
 Coeff:     -0.397D-02 0.185D-01-0.582D-01 0.109D+00-0.607D+00 0.154D+01
 Gap=     0.554 Goal=   None    Shift=    0.000
 RMSDP=9.30D-06 MaxDP=7.89D-05 DE=-2.61D-07 OVMax= 5.46D-05

 Cycle   7  Pass 1  IDiag  3:
 E=-0.407441270286029E-01 Delta-E=       -0.000000042042 Rises=F Damp=F
 DIIS: error= 3.04D-06 at cycle   7 NSaved=   7.
 NSaved= 7 IEnMin= 7 EnMin=-0.407441270286029E-01 IErMin= 7 ErrMin= 3.04D-06
 ErrMax= 3.04D-06  0.00D+00 EMaxC= 1.00D-01 BMatC= 6.23D-10 BMatP= 6.77D-09
 IDIUse=1 WtCom= 1.00D+00 WtEn= 0.00D+00
 Coeff-Com:  0.989D-03-0.452D-02 0.132D-01-0.225D-01 0.234D+00-0.919D+00
 Coeff-Com:  0.170D+01
 Coeff:      0.989D-03-0.452D-02 0.132D-01-0.225D-01 0.234D+00-0.919D+00
 Coeff:      0.170D+01
 Gap=     0.554 Goal=   None    Shift=    0.000
 RMSDP=3.59D-06 MaxDP=2.75D-05 DE=-4.20D-08 OVMax= 1.82D-05

 Cycle   8  Pass 1  IDiag  3:
 E=-0.407441313331560E-01 Delta-E=       -0.000000004305 Rises=F Damp=F
 DIIS: error= 4.40D-07 at cycle   8 NSaved=   8.
 NSaved= 8 IEnMin= 8 EnMin=-0.407441313331560E-01 IErMin= 8 ErrMin= 4.40D-07
 ErrMax= 4.40D-07  0.00D+00 EMaxC= 1.00D-01 BMatC= 1.76D-11 BMatP= 6.23D-10
 IDIUse=1 WtCom= 1.00D+00 WtEn= 0.00D+00
 Coeff-Com: -0.323D-06-0.411D-04 0.581D-03-0.233D-02-0.387D-01 0.226D+00
 Coeff-Com: -0.567D+00 0.138D+01
 Coeff:     -0.323D-06-0.411D-04 0.581D-03-0.233D-02-0.387D-01 0.226D+00
 Coeff:     -0.567D+00 0.138D+01
 Gap=     0.554 Goal=   None    Shift=    0.000
 RMSDP=4.84D-07 MaxDP=3.37D-06 DE=-4.30D-09 OVMax= 3.14D-06

 Cycle   9  Pass 1  IDiag  3:
 E=-0.407441314315662E-01 Delta-E=       -0.000000000098 Rises=F Damp=F
 DIIS: error= 1.56D-07 at cycle   9 NSaved=   9.
 NSaved= 9 IEnMin= 9 EnMin=-0.407441314315662E-01 IErMin= 9 ErrMin= 1.56D-07
 ErrMax= 1.56D-07  0.00D+00 EMaxC= 1.00D-01 BMatC= 1.09D-12 BMatP= 1.76D-11
 IDIUse=1 WtCom= 1.00D+00 WtEn= 0.00D+00
 Coeff-Com: -0.108D-04 0.739D-04-0.485D-03 0.165D-02 0.183D-01-0.114D+00
 Coeff-Com:  0.299D+00-0.855D+00 0.165D+01
 Coeff:     -0.108D-04 0.739D-04-0.485D-03 0.165D-02 0.183D-01-0.114D+00
 Coeff:      0.299D+00-0.855D+00 0.165D+01
 Gap=     0.554 Goal=   None    Shift=    0.000
 RMSDP=1.25D-07 MaxDP=1.31D-06 DE=-9.84D-11 OVMax= 7.07D-07

 Cycle  10  Pass 1  IDiag  3:
 E=-0.407441314385721E-01 Delta-E=       -0.000000000007 Rises=F Damp=F
 DIIS: error= 4.37D-08 at cycle  10 NSaved=  10.
 NSaved=10 IEnMin=10 EnMin=-0.407441314385721E-01 IErMin=10 ErrMin= 4.37D-08
 ErrMax= 4.37D-08  0.00D+00 EMaxC= 1.00D-01 BMatC= 6.93D-14 BMatP= 1.09D-12
 IDIUse=1 WtCom= 1.00D+00 WtEn= 0.00D+00
 Coeff-Com: -0.456D-07-0.102D-04 0.146D-03-0.615D-03-0.852D-02 0.514D-01
 Coeff-Com: -0.134D+00 0.393D+00-0.945D+00 0.164D+01
 Coeff:     -0.456D-07-0.102D-04 0.146D-03-0.615D-03-0.852D-02 0.514D-01
 Coeff:     -0.134D+00 0.393D+00-0.945D+00 0.164D+01
 Gap=     0.554 Goal=   None    Shift=    0.000
 RMSDP=3.61D-08 MaxDP=4.14D-07 DE=-7.01D-12 OVMax= 1.94D-07

 Cycle  11  Pass 1  IDiag  3:
 E=-0.407441314391122E-01 Delta-E=       -0.000000000001 Rises=F Damp=F
 DIIS: error= 5.16D-09 at cycle  11 NSaved=  11.
 NSaved=11 IEnMin=11 EnMin=-0.407441314391122E-01 IErMin=11 ErrMin= 5.16D-09
 ErrMax= 5.16D-09  0.00D+00 EMaxC= 1.00D-01 BMatC= 1.33D-15 BMatP= 6.93D-14
 IDIUse=1 WtCom= 1.00D+00 WtEn= 0.00D+00
 Coeff-Com: -0.279D-06 0.498D-05-0.556D-04 0.224D-03 0.296D-02-0.180D-01
 Coeff-Com:  0.470D-01-0.138D+00 0.346D+00-0.683D+00 0.144D+01
 Coeff:     -0.279D-06 0.498D-05-0.556D-04 0.224D-03 0.296D-02-0.180D-01
 Coeff:      0.470D-01-0.138D+00 0.346D+00-0.683D+00 0.144D+01
 Gap=     0.554 Goal=   None    Shift=    0.000
 RMSDP=3.99D-09 MaxDP=3.89D-08 DE=-5.40D-13 OVMax= 2.50D-08

 Cycle  12  Pass 2  IDiag  1:
 SCF Done:  E(RPDDG) = -0.407441314391E-01 A.U. after   12 cycles
            NFock= 11  Conv=0.40D-08     -V/T= 0.9990
 KE=-4.261286085198D+01 PE=-1.902726580658D+02 EE= 1.056783778381D+02
 Leave Link  502 at Fri Nov  3 15:08:06 2017, MaxMem=   134217728 cpu:               0.1 elap:               0.2
 (Enter /n/sw/g16_nehalem/g16/l601.exe)
 Copying SCF densities to generalized density rwf, IOpCl= 0 IROHF=0.

 **********************************************************************

            Population analysis using the SCF density.

 **********************************************************************

 Orbital symmetries:
       Occupied  (A) (A) (A) (A) (A) (A) (A) (A) (A) (A) (A) (A)
                 (A) (A) (A) (A)
       Virtual   (A) (A) (A) (A) (A) (A) (A) (A) (A) (A) (A) (A)
                 (A) (A) (A) (A)
 The electronic state is 1-A.
 Alpha  occ. eigenvalues --   -1.48939  -1.19490  -1.00327  -0.87911  -0.73260
 Alpha  occ. eigenvalues --   -0.61048  -0.60040  -0.53413  -0.52762  -0.51779
 Alpha  occ. eigenvalues --   -0.48433  -0.45972  -0.45424  -0.43042  -0.42342
 Alpha  occ. eigenvalues --   -0.42255
 Alpha virt. eigenvalues --    0.13163   0.13357   0.14543   0.15706   0.15998
 Alpha virt. eigenvalues --    0.16383   0.16474   0.16789   0.17986   0.18191
 Alpha virt. eigenvalues --    0.18237   0.19598   0.19716   0.19763   0.20610
 Alpha virt. eigenvalues --    0.20831
          Condensed to atoms (all electrons):
               1          2          3          4          5          6
     1  C    4.193263   0.000000   0.000000   0.000000   0.000000   0.000000
     2  H    0.000000   0.897753   0.000000   0.000000   0.000000   0.000000
     3  H    0.000000   0.000000   0.906496   0.000000   0.000000   0.000000
     4  C    0.000000   0.000000   0.000000   4.194956   0.000000   0.000000
     5  H    0.000000   0.000000   0.000000   0.000000   0.903234   0.000000
     6  H    0.000000   0.000000   0.000000   0.000000   0.000000   0.903318
     7  C    0.000000   0.000000   0.000000   0.000000   0.000000   0.000000
     8  H    0.000000   0.000000   0.000000   0.000000   0.000000   0.000000
     9  H    0.000000   0.000000   0.000000   0.000000   0.000000   0.000000
    10  C    0.000000   0.000000   0.000000   0.000000   0.000000   0.000000
    11  H    0.000000   0.000000   0.000000   0.000000   0.000000   0.000000
    12  H    0.000000   0.000000   0.000000   0.000000   0.000000   0.000000
    13  H    0.000000   0.000000   0.000000   0.000000   0.000000   0.000000
    14  C    0.000000   0.000000   0.000000   0.000000   0.000000   0.000000
    15  H    0.000000   0.000000   0.000000   0.000000   0.000000   0.000000
    16  H    0.000000   0.000000   0.000000   0.000000   0.000000   0.000000
    17  H    0.000000   0.000000   0.000000   0.000000   0.000000   0.000000
               7          8          9         10         11         12
     1  C    0.000000   0.000000   0.000000   0.000000   0.000000   0.000000
     2  H    0.000000   0.000000   0.000000   0.000000   0.000000   0.000000
     3  H    0.000000   0.000000   0.000000   0.000000   0.000000   0.000000
     4  C    0.000000   0.000000   0.000000   0.000000   0.000000   0.000000
     5  H    0.000000   0.000000   0.000000   0.000000   0.000000   0.000000
     6  H    0.000000   0.000000   0.000000   0.000000   0.000000   0.000000
     7  C    4.193037   0.000000   0.000000   0.000000   0.000000   0.000000
     8  H    0.000000   0.906556   0.000000   0.000000   0.000000   0.000000
     9  H    0.000000   0.000000   0.897907   0.000000   0.000000   0.000000
    10  C    0.000000   0.000000   0.000000   4.277826   0.000000   0.000000
    11  H    0.000000   0.000000   0.000000   0.000000   0.911278   0.000000
    12  H    0.000000   0.000000   0.000000   0.000000   0.000000   0.907118
    13  H    0.000000   0.000000   0.000000   0.000000   0.000000   0.000000
    14  C    0.000000   0.000000   0.000000   0.000000   0.000000   0.000000
    15  H    0.000000   0.000000   0.000000   0.000000   0.000000   0.000000
    16  H    0.000000   0.000000   0.000000   0.000000   0.000000   0.000000
    17  H    0.000000   0.000000   0.000000   0.000000   0.000000   0.000000
              13         14         15         16         17
     1  C    0.000000   0.000000   0.000000   0.000000   0.000000
     2  H    0.000000   0.000000   0.000000   0.000000   0.000000
     3  H    0.000000   0.000000   0.000000   0.000000   0.000000
     4  C    0.000000   0.000000   0.000000   0.000000   0.000000
     5  H    0.000000   0.000000   0.000000   0.000000   0.000000
     6  H    0.000000   0.000000   0.000000   0.000000   0.000000
     7  C    0.000000   0.000000   0.000000   0.000000   0.000000
     8  H    0.000000   0.000000   0.000000   0.000000   0.000000
     9  H    0.000000   0.000000   0.000000   0.000000   0.000000
    10  C    0.000000   0.000000   0.000000   0.000000   0.000000
    11  H    0.000000   0.000000   0.000000   0.000000   0.000000
    12  H    0.000000   0.000000   0.000000   0.000000   0.000000
    13  H    0.905468   0.000000   0.000000   0.000000   0.000000
    14  C    0.000000   4.278238   0.000000   0.000000   0.000000
    15  H    0.000000   0.000000   0.911318   0.000000   0.000000
    16  H    0.000000   0.000000   0.000000   0.908247   0.000000
    17  H    0.000000   0.000000   0.000000   0.000000   0.903988
 Mulliken charges:
               1
     1  C   -0.193263
     2  H    0.102247
     3  H    0.093504
     4  C   -0.194956
     5  H    0.096766
     6  H    0.096682
     7  C   -0.193037
     8  H    0.093444
     9  H    0.102093
    10  C   -0.277826
    11  H    0.088722
    12  H    0.092882
    13  H    0.094532
    14  C   -0.278238
    15  H    0.088682
    16  H    0.091753
    17  H    0.096012
 Sum of Mulliken charges =   0.00000
 Mulliken charges with hydrogens summed into heavy atoms:
               1
     1  C    0.002489
     4  C   -0.001508
     7  C    0.002499
    10  C   -0.001690
    14  C   -0.001791
 Charge=              0.0000 electrons
 Dipole moment (field-independent basis, Debye):
    X=              0.0005    Y=             -0.0330    Z=              0.0034  Tot=              0.0332
 N-N= 1.271663969483D+02 E-N=-1.902726581129D+02  KE=-4.261286085198D+01
 Leave Link  601 at Fri Nov  3 15:08:06 2017, MaxMem=   134217728 cpu:               0.1 elap:               0.2
 (Enter /n/sw/g16_nehalem/g16/l701.exe)
 ... and contract with generalized density number  0.
 Compute integral first derivatives.
 Leave Link  701 at Fri Nov  3 15:08:07 2017, MaxMem=   134217728 cpu:               0.2 elap:               0.2
 (Enter /n/sw/g16_nehalem/g16/l702.exe)
 L702 exits ... SP integral derivatives will be done elsewhere.
 Leave Link  702 at Fri Nov  3 15:08:07 2017, MaxMem=   134217728 cpu:               0.1 elap:               0.1
 (Enter /n/sw/g16_nehalem/g16/l703.exe)
 Integral derivatives from FoFJK, PRISM(SPDF).
 Compute integral first derivatives, UseDBF=F ICtDFT=           0.
 Calling FoFJK, ICntrl=      2127 FMM=F ISym2X=0 I1Cent= 0 IOpClX= 0 NMat=1 NMatS=1 NMatT=0.
 FoFJK:  IHMeth=41 ICntrl=    2127 DoSepK=F KAlg= 0 I1Cent=           0 FoldK=F
 IRaf=         0 NMat=       1 IRICut=       1 DoRegI=T DoRafI=F ISym2E= 0 IDoP0=3 IntGTp=3.
 FoFCou: FMM=F IPFlag=           0 FMFlag=      100000 FMFlg1=         800
         NFxFlg=           0 DoJE=F BraDBF=F KetDBF=F FulRan=T
         wScrn=  0.000000 ICntrl=      2127 IOpCl=  0 I1Cent=           0 NGrid=           0
         NMat0=    1 NMatS0=      1 NMatT0=    0 NMatD0=    1 NMtDS0=    0 NMtDT0=    0
 Symmetry not used in FoFCou.
 Leave Link  703 at Fri Nov  3 15:08:07 2017, MaxMem=   134217728 cpu:               0.1 elap:               0.1
 (Enter /n/sw/g16_nehalem/g16/l716.exe)
 Dipole        = 2.07044104D-04-1.30022513D-02 1.34911966D-03
 ***** Axes restored to original set *****
 -------------------------------------------------------------------
 Center     Atomic                   Forces (Hartrees/Bohr)
 Number     Number              X              Y              Z
 -------------------------------------------------------------------
      1        6           0.020827572   -0.017151615   -0.031306415
      2        1           0.001131714    0.013054260    0.022370073
      3        1          -0.023713750   -0.000458915    0.003586428
      4        6           0.023846376    0.033636350    0.000607826
      5        1          -0.008906765   -0.014268234   -0.017886848
      6        1          -0.010334501   -0.013069126    0.017973271
      7        6          -0.022924310    0.014301021    0.031617979
      8        1           0.007708048   -0.022277469   -0.003144662
      9        1           0.012272292    0.006625837   -0.021573252
     10        6          -0.005964704   -0.019287623   -0.027502324
     11        1           0.015535895   -0.002310508    0.006521244
     12        1           0.002111312    0.018450009    0.000821150
     13        1          -0.007340836   -0.000413255    0.017461911
     14        6          -0.015959900   -0.011662614    0.027336394
     15        1          -0.008000756    0.013118441   -0.007953622
     16        1           0.016487288    0.008240325   -0.000534751
     17        1           0.003225026   -0.006526883   -0.018394403
 -------------------------------------------------------------------
 Cartesian Forces:  Max     0.033636350 RMS     0.016052128
 Leave Link  716 at Fri Nov  3 15:08:07 2017, MaxMem=   134217728 cpu:               0.1 elap:               0.1
 (Enter /n/sw/g16_nehalem/g16/l103.exe)

 GradGradGradGradGradGradGradGradGradGradGradGradGradGradGradGradGradGrad
 Berny optimization.
 FormGI is forming the generalized inverse of G from B-inverse, IUseBI=4.
 Internal  Forces:  Max     0.024828751 RMS     0.009176344
 Search for a local minimum.
 Step number   1 out of a maximum of   92
 All quantities printed in internal units (Hartrees-Bohrs-Radians)
 RMS Force = .91763D-02 SwitMx=.10000D-02 MixMth= 1
 Mixed Optimization -- RFO/linear search
 Second derivative matrix not updated -- first step.
 ITU=  0
     Eigenvalues ---    0.00237   0.00237   0.00237   0.00237   0.03840
     Eigenvalues ---    0.03840   0.03840   0.04896   0.04896   0.04896
     Eigenvalues ---    0.05720   0.05720   0.05720   0.05720   0.07655
     Eigenvalues ---    0.07655   0.07655   0.11701   0.11701   0.11701
     Eigenvalues ---    0.16000   0.16000   0.16000   0.16000   0.16000
     Eigenvalues ---    0.16000   0.21948   0.21948   0.21948   0.28519
     Eigenvalues ---    0.28519   0.28519   0.28519   0.37230   0.37230
     Eigenvalues ---    0.37230   0.37230   0.37230   0.37230   0.37230
     Eigenvalues ---    0.37230   0.37230   0.37230   0.37230   0.37230
 RFO step:  Lambda=-2.26359113D-02 EMin= 2.36824167D-03
 Linear search not attempted -- first point.
 Iteration  1 RMS(Cart)=  0.11355739 RMS(Int)=  0.00392751
 Iteration  2 RMS(Cart)=  0.00596916 RMS(Int)=  0.00041225
 Iteration  3 RMS(Cart)=  0.00003068 RMS(Int)=  0.00041202
 Iteration  4 RMS(Cart)=  0.00000002 RMS(Int)=  0.00041202
 ITry= 1 IFail=0 DXMaxC= 3.78D-01 DCOld= 1.00D+10 DXMaxT= 3.00D-01 DXLimC= 3.00D+00 Rises=F
 Variable       Old X    -DE/DX   Delta X   Delta X   Delta X     New X
                                 (Linear)    (Quad)   (Total)
    R1        2.02201   0.02480   0.00000   0.06278   0.06278   2.08479
    R2        2.02201   0.02371   0.00000   0.06004   0.06004   2.08205
    R3        2.91018   0.00069   0.00000   0.00225   0.00225   2.91243
    R4        2.91018  -0.00029   0.00000  -0.00095  -0.00095   2.90923
    R5        2.02201   0.02430   0.00000   0.06153   0.06153   2.08353
    R6        2.02201   0.02428   0.00000   0.06148   0.06148   2.08349
    R7        2.91018   0.00140   0.00000   0.00454   0.00454   2.91472
    R8        2.02201   0.02357   0.00000   0.05969   0.05969   2.08169
    R9        2.02201   0.02483   0.00000   0.06287   0.06287   2.08487
   R10        2.91018  -0.00243   0.00000  -0.00791  -0.00791   2.90227
   R11        2.02201   0.01648   0.00000   0.04172   0.04172   2.06372
   R12        2.02201   0.01809   0.00000   0.04580   0.04580   2.06780
   R13        2.02201   0.01798   0.00000   0.04551   0.04551   2.06752
   R14        2.02201   0.01662   0.00000   0.04209   0.04209   2.06410
   R15        2.02201   0.01792   0.00000   0.04538   0.04538   2.06739
   R16        2.02201   0.01830   0.00000   0.04635   0.04635   2.06835
    A1        1.91063  -0.00084   0.00000  -0.04153  -0.04179   1.86885
    A2        1.91063  -0.00245   0.00000   0.00145   0.00015   1.91078
    A3        1.91063  -0.00218   0.00000   0.00673   0.00578   1.91642
    A4        1.91063  -0.00448   0.00000  -0.02374  -0.02397   1.88666
    A5        1.91063  -0.00248   0.00000  -0.00609  -0.00575   1.90488
    A6        1.91063   0.01243   0.00000   0.06317   0.06251   1.97314
    A7        1.91063  -0.00466   0.00000  -0.00973  -0.01022   1.90041
    A8        1.91063  -0.00634   0.00000  -0.02270  -0.02338   1.88726
    A9        1.91063   0.02062   0.00000   0.09668   0.09614   2.00677
   A10        1.91063   0.00147   0.00000  -0.03100  -0.03182   1.87881
   A11        1.91063  -0.00628   0.00000  -0.02140  -0.02225   1.88839
   A12        1.91063  -0.00481   0.00000  -0.01185  -0.01222   1.89842
   A13        1.91063  -0.00502   0.00000  -0.02789  -0.02783   1.88280
   A14        1.91063  -0.00142   0.00000   0.01156   0.01047   1.92110
   A15        1.91063   0.01271   0.00000   0.06345   0.06279   1.97343
   A16        1.91063  -0.00045   0.00000  -0.03702  -0.03720   1.87344
   A17        1.91063  -0.00259   0.00000  -0.00955  -0.00915   1.90149
   A18        1.91063  -0.00324   0.00000  -0.00055  -0.00192   1.90871
   A19        1.91063   0.00363   0.00000   0.01862   0.01834   1.92897
   A20        1.91063   0.00393   0.00000   0.02082   0.02049   1.93112
   A21        1.91063   0.00701   0.00000   0.04034   0.03982   1.95045
   A22        1.91063  -0.00447   0.00000  -0.02839  -0.02848   1.88216
   A23        1.91063  -0.00508   0.00000  -0.02649  -0.02693   1.88370
   A24        1.91063  -0.00502   0.00000  -0.02491  -0.02545   1.88518
   A25        1.91063   0.00430   0.00000   0.02281   0.02240   1.93303
   A26        1.91063   0.00325   0.00000   0.01730   0.01695   1.92758
   A27        1.91063   0.00878   0.00000   0.04931   0.04868   1.95931
   A28        1.91063  -0.00422   0.00000  -0.02561  -0.02572   1.88491
   A29        1.91063  -0.00636   0.00000  -0.03377  -0.03442   1.87622
   A30        1.91063  -0.00575   0.00000  -0.03004  -0.03058   1.88005
    D1        3.14159  -0.00523   0.00000  -0.06529  -0.06540   3.07619
    D2        1.04720  -0.00030   0.00000  -0.00747  -0.00765   1.03954
    D3       -1.04720  -0.00315   0.00000  -0.03826  -0.03807  -1.08527
    D4        1.04720   0.00004   0.00000  -0.00078  -0.00107   1.04612
    D5       -1.04720   0.00498   0.00000   0.05705   0.05667  -0.99053
    D6        3.14159   0.00212   0.00000   0.02625   0.02626  -3.11534
    D7       -1.04720  -0.00179   0.00000  -0.01747  -0.01729  -1.06449
    D8        3.14159   0.00314   0.00000   0.04035   0.04045  -3.10114
    D9        1.04720   0.00029   0.00000   0.00956   0.01004   1.05724
   D10       -1.59788   0.00345   0.00000   0.06731   0.06770  -1.53018
   D11        0.49652   0.00291   0.00000   0.06051   0.06064   0.55716
   D12        2.59091   0.00323   0.00000   0.06451   0.06473   2.65564
   D13        0.49652  -0.00043   0.00000   0.01685   0.01688   0.51339
   D14        2.59091  -0.00097   0.00000   0.01004   0.00982   2.60073
   D15       -1.59788  -0.00065   0.00000   0.01404   0.01390  -1.58397
   D16        2.59091   0.00018   0.00000   0.02272   0.02273   2.61364
   D17       -1.59788  -0.00036   0.00000   0.01592   0.01567  -1.58221
   D18        0.49652  -0.00004   0.00000   0.01992   0.01976   0.51627
   D19        3.14159   0.00162   0.00000   0.01818   0.01819  -3.12341
   D20       -1.04720  -0.00287   0.00000  -0.03716  -0.03724  -1.08444
   D21        1.04720   0.00008   0.00000   0.00810   0.00870   1.05590
   D22       -1.04720   0.00469   0.00000   0.05236   0.05204  -0.99516
   D23        1.04720   0.00019   0.00000  -0.00298  -0.00339   1.04381
   D24        3.14159   0.00315   0.00000   0.04228   0.04255  -3.09904
   D25        1.04720  -0.00030   0.00000  -0.00597  -0.00617   1.04102
   D26        3.14159  -0.00479   0.00000  -0.06131  -0.06159   3.08000
   D27       -1.04720  -0.00183   0.00000  -0.01605  -0.01565  -1.06285
   D28        2.71163  -0.00073   0.00000  -0.00397  -0.00394   2.70770
   D29       -1.47716  -0.00158   0.00000  -0.01458  -0.01476  -1.49192
   D30        0.61724  -0.00102   0.00000  -0.00764  -0.00768   0.60956
   D31        0.61724  -0.00078   0.00000  -0.00281  -0.00275   0.61449
   D32        2.71163  -0.00162   0.00000  -0.01343  -0.01357   2.69806
   D33       -1.47716  -0.00107   0.00000  -0.00648  -0.00649  -1.48365
   D34       -1.47716   0.00334   0.00000   0.04871   0.04889  -1.42827
   D35        0.61724   0.00249   0.00000   0.03809   0.03806   0.65530
   D36        2.71163   0.00304   0.00000   0.04504   0.04515   2.75678
         Item               Value     Threshold  Converged?
 Maximum Force            0.024829     0.000450     NO 
 RMS     Force            0.009176     0.000300     NO 
 Maximum Displacement     0.377744     0.001800     NO 
 RMS     Displacement     0.115445     0.001200     NO 
 Predicted change in Energy=-1.260605D-02
 Lowest energy point so far.  Saving SCF results.
 GradGradGradGradGradGradGradGradGradGradGradGradGradGradGradGradGradGrad

 Leave Link  103 at Fri Nov  3 15:08:07 2017, MaxMem=   134217728 cpu:               0.0 elap:               0.1
 (Enter /n/sw/g16_nehalem/g16/l202.exe)
                          Input orientation:                          
 ---------------------------------------------------------------------
 Center     Atomic      Atomic             Coordinates (Angstroms)
 Number     Number       Type             X           Y           Z
 ---------------------------------------------------------------------
      1          6           0       -5.593207    0.975229   -0.062765
      2          1           0       -5.321027    1.524872    0.854249
      3          1           0       -6.691897    0.894141   -0.077302
      4          6           0       -5.008785   -0.449501   -0.000582
      5          1           0       -5.342523   -1.011212   -0.888690
      6          1           0       -5.424124   -0.952233    0.888427
      7          6           0       -3.469313   -0.519817    0.063347
      8          1           0       -3.179946   -1.582502    0.084740
      9          1           0       -3.031945   -0.078215   -0.848189
     10          6           0       -2.885683    0.180907    1.299101
     11          1           0       -1.909635   -0.238699    1.551863
     12          1           0       -2.751864    1.250172    1.109063
     13          1           0       -3.535767    0.071223    2.172247
     14          6           0       -5.128805    1.763798   -1.300723
     15          1           0       -5.893054    2.478843   -1.613284
     16          1           0       -4.214770    2.321972   -1.077456
     17          1           0       -4.920341    1.110849   -2.154061
 ---------------------------------------------------------------------
                    Distance matrix (angstroms):
                    1          2          3          4          5
     1  C    0.000000
     2  H    1.103224   0.000000
     3  H    1.101774   1.773385   0.000000
     4  C    1.541192   2.174024   2.155024   0.000000
     5  H    2.165858   3.077340   2.471747   1.102559   0.000000
     6  H    2.156030   2.479485   2.439053   1.102534   1.779967
     7  C    2.600383   2.869691   3.521947   1.542403   2.157953
     8  H    3.519598   3.851252   4.300444   2.153050   2.439401
     9  H    2.878662   3.272320   3.864582   2.182702   2.492166
    10  C    3.133100   2.816920   4.109800   2.567908   3.499091
    11  H    4.201113   3.903133   5.177600   3.472644   4.282266
    12  H    3.085775   2.596342   4.130143   3.035440   3.976982
    13  H    3.169474   2.652804   3.962174   2.676214   3.715558
    14  C    1.539497   2.176680   2.167099   2.569721   2.813562
    15  H    2.180567   2.706656   2.347055   3.458025   3.606744
    16  H    2.177936   2.364457   3.029054   3.077529   3.523858
    17  H    2.201059   3.062988   2.738303   2.660825   2.506500
                    6          7          8          9         10
     6  H    0.000000
     7  C    2.165416   0.000000
     8  H    2.465661   1.101585   0.000000
     9  H    3.082574   1.103268   1.776271   0.000000
    10  C    2.810043   1.535815   2.161221   2.167809   0.000000
    11  H    3.647042   2.174236   2.360497   2.654353   1.092075
    12  H    3.469905   2.177410   3.042455   2.381993   1.094234
    13  H    2.502308   2.191165   2.686838   3.065812   1.094085
    14  C    3.500916   3.135203   4.112819   2.827476   3.781035
    15  H    4.272087   4.204470   5.170953   3.912781   4.775644
    16  H    4.005952   3.151650   4.203150   2.685616   3.463907
    17  H    3.710369   3.111503   3.910926   2.585578   4.114481
                   11         12         13         14         15
    11  H    0.000000
    12  H    1.766962   0.000000
    13  H    1.767833   1.770532   0.000000
    14  C    4.744502   3.423555   4.179007   0.000000
    15  H    5.768086   4.334499   5.067906   1.092272   0.000000
    16  H    4.334051   2.840724   4.010920   1.094014   1.768716
    17  H    4.961805   3.920419   4.659915   1.094526   1.763524
                   16         17
    16  H    0.000000
    17  H    1.767408   0.000000
 Stoichiometry    C5H12
 Framework group  C1[X(C5H12)]
 Deg. of freedom    45
 Full point group                 C1      NOp   1
 RotChk:  IX=0 Diff= 8.54D-03
 Largest Abelian subgroup         C1      NOp   1
 Largest concise Abelian subgroup C1      NOp   1
                         Standard orientation:                         
 ---------------------------------------------------------------------
 Center     Atomic      Atomic             Coordinates (Angstroms)
 Number     Number       Type             X           Y           Z
 ---------------------------------------------------------------------
      1          6           0       -1.125773    0.235269   -0.648852
      2          1           0       -0.709136   -0.367170   -1.473828
      3          1           0       -1.849235    0.936967   -1.093968
      4          6           0        0.000310    1.059495    0.005257
      5          1           0       -0.437133    1.707494    0.782675
      6          1           0        0.439712    1.713078   -0.766323
      7          6           0        1.126779    0.226471    0.650351
      8          1           0        1.852495    0.925936    1.094843
      9          1           0        0.719967   -0.390078    1.469846
     10          6           0        1.856609   -0.678215   -0.353452
     11          1           0        2.867491   -0.899697   -0.004609
     12          1           0        1.327230   -1.628483   -0.472182
     13          1           0        1.935537   -0.209479   -1.338886
     14          6           0       -1.858871   -0.681118    0.347568
     15          1           0       -2.899842   -0.823362    0.048895
     16          1           0       -1.380700   -1.664371    0.385453
     17          1           0       -1.860707   -0.272246    1.362854
 ---------------------------------------------------------------------
 Rotational constants (GHZ):           7.6624761           2.8971567           2.6575753
 Leave Link  202 at Fri Nov  3 15:08:07 2017, MaxMem=   134217728 cpu:               0.0 elap:               0.0
 (Enter /n/sw/g16_nehalem/g16/l301.exe)
 Standard basis: VSTO-6G (5D, 7F)
 Ernie: Thresh=  0.10000D-02 Tol=  0.10000D-05 Strict=F.
  NNHCO=     0 NNPyr=     0 NCTC=     0               EPep=         0.000000000
    EC=        93.620900583  ECS=         1.798045229   EG=         0.545167643
   EHC=         0.000000000  EAt=       -26.628119222  AtH=         2.358010613
 EPDDG=         0.003550936  ECC=        95.967664391 EAtT=        28.986129834
 There are    32 symmetry adapted cartesian basis functions of A   symmetry.
 There are    32 symmetry adapted basis functions of A   symmetry.
    32 basis functions,   192 primitive gaussians,    32 cartesian basis functions
    16 alpha electrons       16 beta electrons
       nuclear repulsion energy       124.9537942251 Hartrees.
 IExCor=    0 DFT=F Ex=HF Corr=None ExCW=0 ScaHFX=  1.000000
 ScaDFX=  1.000000  1.000000  1.000000  1.000000 ScalE2=  1.000000  1.000000
 IRadAn=      5 IRanWt=     -1 IRanGd=            0 ICorTp=0 IEmpDi=  4
 Integral buffers will be    131072 words long.
 Regular integral format.
 Two-electron integral symmetry is turned off.
 Leave Link  301 at Fri Nov  3 15:08:08 2017, MaxMem=   134217728 cpu:               0.1 elap:               0.1
 (Enter /n/sw/g16_nehalem/g16/l302.exe)
 Do NDO integrals.
 NPDir=0 NMtPBC=     1 NCelOv=     1 NCel=       1 NClECP=     1 NCelD=      1
         NCelK=      1 NCelE2=     1 NClLst=     1 CellRange=     0.0.
 One-electron integrals computed using PRISM.
 NBasis=    32 RedAO= F EigKep=  0.00D+00  NBF=    32
 NBsUse=    32 1.00D-04 EigRej=  0.00D+00 NBFU=    32
 Leave Link  302 at Fri Nov  3 15:08:08 2017, MaxMem=   134217728 cpu:               0.2 elap:               0.2
 (Enter /n/sw/g16_nehalem/g16/l303.exe)
 DipDrv:  MaxL=1.
 Leave Link  303 at Fri Nov  3 15:08:08 2017, MaxMem=   134217728 cpu:               0.1 elap:               0.1
 (Enter /n/sw/g16_nehalem/g16/l401.exe)
 Initial guess from the checkpoint file:  "/scratch/dhuang9_pentane_conformation_3/Gau-52207.chk"
 B after Tr=     0.000000    0.000000    0.000000
         Rot=    0.999996   -0.002164   -0.001692   -0.000079 Ang=  -0.31 deg.
 Guess basis will be translated and rotated to current coordinates.
 JPrj=0 DoOrth=T DoCkMO=T.
 Leave Link  401 at Fri Nov  3 15:08:08 2017, MaxMem=   134217728 cpu:               0.2 elap:               0.2
 (Enter /n/sw/g16_nehalem/g16/l502.exe)
 Keep J ints in memory in canonical form, NReq=861453.
 FoFCou: FMM=F IPFlag=           0 FMFlag=           0 FMFlg1=           0
         NFxFlg=           0 DoJE=F BraDBF=F KetDBF=F FulRan=T
         wScrn=  0.000000 ICntrl=       600 IOpCl=  2 I1Cent=           0 NGrid=           0
         NMat0=    1 NMatS0=     62 NMatT0=    0 NMatD0=    1 NMtDS0=    0 NMtDT0=    0
 Symmetry not used in FoFCou.
 Two-electron integral symmetry not used.
 Closed shell SCF:
 Using DIIS extrapolation, IDIIS=  1040.
 Overlap will be assumed to be unity.
 NGot=   134217728 LenX=   134153800 LenY=   134152335
 Requested convergence on RMS density matrix=1.00D-08 within 128 cycles.
 Requested convergence on MAX density matrix=1.00D-06.
 Requested convergence on             energy=1.00D-06.
 No special actions if energy rises.

 Cycle   1  Pass 1  IDiag  1:
 E=-0.339481958660315E-01
 DIIS: error= 7.03D-03 at cycle   1 NSaved=   1.
 NSaved= 1 IEnMin= 1 EnMin=-0.339481958660315E-01 IErMin= 1 ErrMin= 7.03D-03
 ErrMax= 7.03D-03  0.00D+00 EMaxC= 1.00D-01 BMatC= 3.55D-03 BMatP= 3.55D-03
 IDIUse=3 WtCom= 9.30D-01 WtEn= 7.03D-02
 Coeff-Com:  0.100D+01
 Coeff-En:   0.100D+01
 Coeff:      0.100D+01
 GapD=    2.000 DampG=2.000 DampE=1.000 DampFc=2.0000 IDamp=-1.
 RMSDP=3.43D-03 MaxDP=1.68D-02              OVMax= 0.00D+00

 Cycle   2  Pass 1  IDiag  3:
 E=-0.464808440860338E-01 Delta-E=       -0.012532648220 Rises=F Damp=F
 DIIS: error= 3.11D-03 at cycle   2 NSaved=   2.
 NSaved= 2 IEnMin= 2 EnMin=-0.464808440860338E-01 IErMin= 2 ErrMin= 3.11D-03
 ErrMax= 3.11D-03  0.00D+00 EMaxC= 1.00D-01 BMatC= 5.36D-04 BMatP= 3.55D-03
 IDIUse=3 WtCom= 9.69D-01 WtEn= 3.11D-02
 Coeff-Com: -0.537D+00 0.154D+01
 Coeff-En:   0.000D+00 0.100D+01
 Coeff:     -0.521D+00 0.152D+01
 Gap=     0.544 Goal=   None    Shift=    0.000
 RMSDP=2.22D-03 MaxDP=1.20D-02 DE=-1.25D-02 OVMax= 1.61D-02

 Cycle   3  Pass 1  IDiag  3:
 E=-0.491060066596560E-01 Delta-E=       -0.002625162574 Rises=F Damp=F
 DIIS: error= 4.98D-04 at cycle   3 NSaved=   3.
 NSaved= 3 IEnMin= 3 EnMin=-0.491060066596560E-01 IErMin= 3 ErrMin= 4.98D-04
 ErrMax= 4.98D-04  0.00D+00 EMaxC= 1.00D-01 BMatC= 1.42D-05 BMatP= 5.36D-04
 IDIUse=3 WtCom= 9.95D-01 WtEn= 4.98D-03
 Coeff-Com:  0.156D+00-0.561D+00 0.140D+01
 Coeff-En:   0.000D+00 0.000D+00 0.100D+01
 Coeff:      0.155D+00-0.558D+00 0.140D+01
 Gap=     0.544 Goal=   None    Shift=    0.000
 RMSDP=4.19D-04 MaxDP=2.50D-03 DE=-2.63D-03 OVMax= 3.39D-03

 Cycle   4  Pass 1  IDiag  3:
 E=-0.491802619501698E-01 Delta-E=       -0.000074255291 Rises=F Damp=F
 DIIS: error= 4.20D-05 at cycle   4 NSaved=   4.
 NSaved= 4 IEnMin= 4 EnMin=-0.491802619501698E-01 IErMin= 4 ErrMin= 4.20D-05
 ErrMax= 4.20D-05  0.00D+00 EMaxC= 1.00D-01 BMatC= 1.90D-07 BMatP= 1.42D-05
 IDIUse=1 WtCom= 1.00D+00 WtEn= 0.00D+00
 Coeff-Com: -0.468D-01 0.175D+00-0.501D+00 0.137D+01
 Coeff:     -0.468D-01 0.175D+00-0.501D+00 0.137D+01
 Gap=     0.544 Goal=   None    Shift=    0.000
 RMSDP=4.24D-05 MaxDP=2.20D-04 DE=-7.43D-05 OVMax= 2.87D-04

 Cycle   5  Pass 1  IDiag  3:
 E=-0.491811569802110E-01 Delta-E=       -0.000000895030 Rises=F Damp=F
 DIIS: error= 7.08D-06 at cycle   5 NSaved=   5.
 NSaved= 5 IEnMin= 5 EnMin=-0.491811569802110E-01 IErMin= 5 ErrMin= 7.08D-06
 ErrMax= 7.08D-06  0.00D+00 EMaxC= 1.00D-01 BMatC= 5.56D-09 BMatP= 1.90D-07
 IDIUse=1 WtCom= 1.00D+00 WtEn= 0.00D+00
 Coeff-Com:  0.158D-01-0.592D-01 0.173D+00-0.558D+00 0.143D+01
 Coeff:      0.158D-01-0.592D-01 0.173D+00-0.558D+00 0.143D+01
 Gap=     0.544 Goal=   None    Shift=    0.000
 RMSDP=7.63D-06 MaxDP=3.84D-05 DE=-8.95D-07 OVMax= 5.83D-05

 Cycle   6  Pass 1  IDiag  3:
 E=-0.491811859768063E-01 Delta-E=       -0.000000028997 Rises=F Damp=F
 DIIS: error= 2.09D-06 at cycle   6 NSaved=   6.
 NSaved= 6 IEnMin= 6 EnMin=-0.491811859768063E-01 IErMin= 6 ErrMin= 2.09D-06
 ErrMax= 2.09D-06  0.00D+00 EMaxC= 1.00D-01 BMatC= 2.56D-10 BMatP= 5.56D-09
 IDIUse=1 WtCom= 1.00D+00 WtEn= 0.00D+00
 Coeff-Com: -0.592D-02 0.222D-01-0.651D-01 0.217D+00-0.674D+00 0.151D+01
 Coeff:     -0.592D-02 0.222D-01-0.651D-01 0.217D+00-0.674D+00 0.151D+01
 Gap=     0.544 Goal=   None    Shift=    0.000
 RMSDP=1.79D-06 MaxDP=1.44D-05 DE=-2.90D-08 OVMax= 1.12D-05

 Cycle   7  Pass 1  IDiag  3:
 E=-0.491811874580463E-01 Delta-E=       -0.000000001481 Rises=F Damp=F
 DIIS: error= 6.44D-07 at cycle   7 NSaved=   7.
 NSaved= 7 IEnMin= 7 EnMin=-0.491811874580463E-01 IErMin= 7 ErrMin= 6.44D-07
 ErrMax= 6.44D-07  0.00D+00 EMaxC= 1.00D-01 BMatC= 1.38D-11 BMatP= 2.56D-10
 IDIUse=1 WtCom= 1.00D+00 WtEn= 0.00D+00
 Coeff-Com:  0.188D-02-0.704D-02 0.207D-01-0.699D-01 0.229D+00-0.661D+00
 Coeff-Com:  0.149D+01
 Coeff:      0.188D-02-0.704D-02 0.207D-01-0.699D-01 0.229D+00-0.661D+00
 Coeff:      0.149D+01
 Gap=     0.544 Goal=   None    Shift=    0.000
 RMSDP=4.33D-07 MaxDP=4.30D-06 DE=-1.48D-09 OVMax= 2.66D-06

 Cycle   8  Pass 1  IDiag  3:
 E=-0.491811875418193E-01 Delta-E=       -0.000000000084 Rises=F Damp=F
 DIIS: error= 1.33D-07 at cycle   8 NSaved=   8.
 NSaved= 8 IEnMin= 8 EnMin=-0.491811875418193E-01 IErMin= 8 ErrMin= 1.33D-07
 ErrMax= 1.33D-07  0.00D+00 EMaxC= 1.00D-01 BMatC= 9.15D-13 BMatP= 1.38D-11
 IDIUse=1 WtCom= 1.00D+00 WtEn= 0.00D+00
 Coeff-Com: -0.336D-03 0.125D-02-0.368D-02 0.128D-01-0.448D-01 0.163D+00
 Coeff-Com: -0.601D+00 0.147D+01
 Coeff:     -0.336D-03 0.125D-02-0.368D-02 0.128D-01-0.448D-01 0.163D+00
 Coeff:     -0.601D+00 0.147D+01
 Gap=     0.544 Goal=   None    Shift=    0.000
 RMSDP=1.17D-07 MaxDP=1.24D-06 DE=-8.38D-11 OVMax= 6.80D-07

 Cycle   9  Pass 1  IDiag  3:
 E=-0.491811875475889E-01 Delta-E=       -0.000000000006 Rises=F Damp=F
 DIIS: error= 2.57D-08 at cycle   9 NSaved=   9.
 NSaved= 9 IEnMin= 9 EnMin=-0.491811875475889E-01 IErMin= 9 ErrMin= 2.57D-08
 ErrMax= 2.57D-08  0.00D+00 EMaxC= 1.00D-01 BMatC= 5.58D-14 BMatP= 9.15D-13
 IDIUse=1 WtCom= 1.00D+00 WtEn= 0.00D+00
 Coeff-Com:  0.288D-04-0.105D-03 0.310D-03-0.124D-02 0.560D-02-0.325D-01
 Coeff-Com:  0.182D+00-0.682D+00 0.153D+01
 Coeff:      0.288D-04-0.105D-03 0.310D-03-0.124D-02 0.560D-02-0.325D-01
 Coeff:      0.182D+00-0.682D+00 0.153D+01
 Gap=     0.544 Goal=   None    Shift=    0.000
 RMSDP=3.06D-08 MaxDP=2.52D-07 DE=-5.77D-12 OVMax= 2.25D-07

 Cycle  10  Pass 1  IDiag  3:
 E=-0.491811875479584E-01 Delta-E=        0.000000000000 Rises=F Damp=F
 DIIS: error= 7.03D-09 at cycle  10 NSaved=  10.
 NSaved=10 IEnMin=10 EnMin=-0.491811875479584E-01 IErMin=10 ErrMin= 7.03D-09
 ErrMax= 7.03D-09  0.00D+00 EMaxC= 1.00D-01 BMatC= 2.53D-15 BMatP= 5.58D-14
 IDIUse=1 WtCom= 1.00D+00 WtEn= 0.00D+00
 Coeff-Com: -0.302D-05 0.103D-04-0.311D-04 0.189D-03-0.124D-02 0.104D-01
 Coeff-Com: -0.681D-01 0.281D+00-0.762D+00 0.154D+01
 Coeff:     -0.302D-05 0.103D-04-0.311D-04 0.189D-03-0.124D-02 0.104D-01
 Coeff:     -0.681D-01 0.281D+00-0.762D+00 0.154D+01
 Gap=     0.544 Goal=   None    Shift=    0.000
 RMSDP=6.07D-09 MaxDP=4.42D-08 DE=-3.69D-13 OVMax= 4.60D-08

 Cycle  11  Pass 2  IDiag  1:
 SCF Done:  E(RPDDG) = -0.491811875480E-01 A.U. after   11 cycles
            NFock= 10  Conv=0.61D-08     -V/T= 0.9988
 KE=-4.246812784164D+01 PE=-1.862399780570D+02 EE= 1.037051304859D+02
 Leave Link  502 at Fri Nov  3 15:08:08 2017, MaxMem=   134217728 cpu:               0.1 elap:               0.1
 (Enter /n/sw/g16_nehalem/g16/l701.exe)
 ... and contract with generalized density number  0.
 Compute integral first derivatives.
 Leave Link  701 at Fri Nov  3 15:08:08 2017, MaxMem=   134217728 cpu:               0.1 elap:               0.1
 (Enter /n/sw/g16_nehalem/g16/l702.exe)
 L702 exits ... SP integral derivatives will be done elsewhere.
 Leave Link  702 at Fri Nov  3 15:08:08 2017, MaxMem=   134217728 cpu:               0.1 elap:               0.1
 (Enter /n/sw/g16_nehalem/g16/l703.exe)
 Integral derivatives from FoFJK, PRISM(SPDF).
 Compute integral first derivatives, UseDBF=F ICtDFT=           0.
 Calling FoFJK, ICntrl=      2127 FMM=F ISym2X=0 I1Cent= 0 IOpClX= 0 NMat=1 NMatS=1 NMatT=0.
 FoFJK:  IHMeth=41 ICntrl=    2127 DoSepK=F KAlg= 0 I1Cent=           0 FoldK=F
 IRaf=         0 NMat=       1 IRICut=       1 DoRegI=T DoRafI=F ISym2E= 0 IDoP0=3 IntGTp=3.
 FoFCou: FMM=F IPFlag=           0 FMFlag=      100000 FMFlg1=         800
         NFxFlg=           0 DoJE=F BraDBF=F KetDBF=F FulRan=T
         wScrn=  0.000000 ICntrl=      2127 IOpCl=  0 I1Cent=           0 NGrid=           0
         NMat0=    1 NMatS0=      1 NMatT0=    0 NMatD0=    1 NMtDS0=    0 NMtDT0=    0
 Symmetry not used in FoFCou.
 Leave Link  703 at Fri Nov  3 15:08:09 2017, MaxMem=   134217728 cpu:               0.1 elap:               0.1
 (Enter /n/sw/g16_nehalem/g16/l716.exe)
 Dipole        = 1.86962854D-03 1.94910697D-03 7.13894813D-04
 ***** Axes restored to original set *****
 -------------------------------------------------------------------
 Center     Atomic                   Forces (Hartrees/Bohr)
 Number     Number              X              Y              Z
 -------------------------------------------------------------------
      1        6           0.014112792   -0.007099243   -0.011468355
      2        1           0.000913535    0.001375703    0.003332326
      3        1          -0.003738627   -0.000533733    0.001881367
      4        6           0.011511940    0.015768736   -0.000140020
      5        1          -0.001251922   -0.002423552   -0.002280615
      6        1          -0.001890670   -0.002177727    0.002299182
      7        6          -0.011843723    0.010298635    0.010425669
      8        1           0.001048873   -0.003729271   -0.002115732
      9        1           0.000178977    0.000925387   -0.003637693
     10        6          -0.008875504   -0.005686714   -0.013107335
     11        1           0.001776387    0.000697177    0.001406691
     12        1          -0.001262441    0.001500472    0.001792166
     13        1          -0.000516938    0.000515881    0.001273910
     14        6          -0.002679677   -0.010535680    0.014070066
     15        1           0.000106767    0.002027486   -0.001143991
     16        1           0.001710086    0.000016546   -0.001948913
     17        1           0.000700146   -0.000940102   -0.000638724
 -------------------------------------------------------------------
 Cartesian Forces:  Max     0.015768736 RMS     0.006001042
 Leave Link  716 at Fri Nov  3 15:08:09 2017, MaxMem=   134217728 cpu:               0.1 elap:               0.1
 (Enter /n/sw/g16_nehalem/g16/l103.exe)

 GradGradGradGradGradGradGradGradGradGradGradGradGradGradGradGradGradGrad
 Berny optimization.
 Using GEDIIS/GDIIS optimizer.
 FormGI is forming the generalized inverse of G from B-inverse, IUseBI=4.
 Internal  Forces:  Max     0.019827690 RMS     0.004931020
 Search for a local minimum.
 Step number   2 out of a maximum of   92
 All quantities printed in internal units (Hartrees-Bohrs-Radians)
 RMS Force = .49310D-02 SwitMx=.10000D-02 MixMth= 1
 Mixed Optimization -- RFO/linear search
 Update second derivatives using D2CorX and points    1    2
 DE= -8.44D-03 DEPred=-1.26D-02 R= 6.69D-01
 TightC=F SS=  1.41D+00  RLast= 3.35D-01 DXNew= 5.0454D-01 1.0036D+00
 Trust test= 6.69D-01 RLast= 3.35D-01 DXMaxT set to 5.05D-01
 ITU=  1  0
 Use linear search instead of GDIIS.
     Eigenvalues ---    0.00236   0.00237   0.00237   0.00239   0.03267
     Eigenvalues ---    0.03411   0.03488   0.04736   0.04759   0.05064
     Eigenvalues ---    0.05324   0.05379   0.05500   0.05549   0.08274
     Eigenvalues ---    0.08317   0.08609   0.12208   0.12218   0.12405
     Eigenvalues ---    0.14742   0.16000   0.16000   0.16000   0.16000
     Eigenvalues ---    0.16053   0.21941   0.21953   0.23398   0.26049
     Eigenvalues ---    0.28519   0.28519   0.28554   0.37166   0.37230
     Eigenvalues ---    0.37230   0.37230   0.37230   0.37230   0.37230
     Eigenvalues ---    0.37230   0.37230   0.37230   0.37230   0.46906
 RFO step:  Lambda=-6.18677379D-03 EMin= 2.36269061D-03
 Quartic linear search produced a step of -0.13866.
 Iteration  1 RMS(Cart)=  0.08138317 RMS(Int)=  0.00188706
 Iteration  2 RMS(Cart)=  0.00251637 RMS(Int)=  0.00010610
 Iteration  3 RMS(Cart)=  0.00000366 RMS(Int)=  0.00010607
 Iteration  4 RMS(Cart)=  0.00000000 RMS(Int)=  0.00010607
 ITry= 1 IFail=0 DXMaxC= 3.20D-01 DCOld= 1.00D+10 DXMaxT= 5.05D-01 DXLimC= 3.00D+00 Rises=F
 Variable       Old X    -DE/DX   Delta X   Delta X   Delta X     New X
                                 (Linear)    (Quad)   (Total)
    R1        2.08479   0.00368  -0.00871   0.03407   0.02536   2.11015
    R2        2.08205   0.00374  -0.00833   0.03308   0.02476   2.10681
    R3        2.91243  -0.01889  -0.00031  -0.05456  -0.05488   2.85755
    R4        2.90923  -0.01319   0.00013  -0.03913  -0.03900   2.87023
    R5        2.08353   0.00345  -0.00853   0.03303   0.02450   2.10804
    R6        2.08349   0.00356  -0.00853   0.03326   0.02473   2.10822
    R7        2.91472  -0.01983  -0.00063  -0.05641  -0.05704   2.85768
    R8        2.08169   0.00383  -0.00828   0.03314   0.02486   2.10656
    R9        2.08487   0.00345  -0.00872   0.03357   0.02486   2.10973
   R10        2.90227  -0.01168   0.00110  -0.03748  -0.03638   2.86589
   R11        2.06372   0.00165  -0.00578   0.02083   0.01504   2.07877
   R12        2.06780   0.00100  -0.00635   0.02104   0.01469   2.08250
   R13        2.06752   0.00127  -0.00631   0.02154   0.01523   2.08275
   R14        2.06410   0.00158  -0.00584   0.02083   0.01500   2.07909
   R15        2.06739   0.00104  -0.00629   0.02096   0.01467   2.08205
   R16        2.06835   0.00119  -0.00643   0.02170   0.01527   2.08363
    A1        1.86885  -0.00208   0.00579  -0.00852  -0.00277   1.86607
    A2        1.91078   0.00243  -0.00002  -0.00677  -0.00679   1.90399
    A3        1.91642   0.00340  -0.00080   0.00471   0.00363   1.92005
    A4        1.88666   0.00329   0.00332   0.00848   0.01210   1.89876
    A5        1.90488   0.00423   0.00080   0.02451   0.02535   1.93023
    A6        1.97314  -0.01085  -0.00867  -0.02162  -0.03025   1.94289
    A7        1.90041   0.00526   0.00142   0.01144   0.01282   1.91323
    A8        1.88726   0.00526   0.00324   0.00819   0.01153   1.89879
    A9        2.00677  -0.01734  -0.01333  -0.03432  -0.04756   1.95922
   A10        1.87881  -0.00301   0.00441  -0.00220   0.00210   1.88091
   A11        1.88839   0.00516   0.00308   0.00615   0.00930   1.89769
   A12        1.89842   0.00527   0.00169   0.01229   0.01401   1.91243
   A13        1.88280   0.00377   0.00386   0.01136   0.01552   1.89832
   A14        1.92110   0.00163  -0.00145  -0.01107  -0.01254   1.90856
   A15        1.97343  -0.01122  -0.00871  -0.02245  -0.03115   1.94228
   A16        1.87344  -0.00226   0.00516  -0.00884  -0.00375   1.86968
   A17        1.90149   0.00417   0.00127   0.02547   0.02678   1.92827
   A18        1.90871   0.00431   0.00027   0.00656   0.00646   1.91517
   A19        1.92897   0.00230  -0.00254   0.02246   0.01980   1.94877
   A20        1.93112   0.00138  -0.00284   0.01386   0.01097   1.94208
   A21        1.95045  -0.00008  -0.00552   0.01137   0.00588   1.95634
   A22        1.88216  -0.00113   0.00395  -0.01067  -0.00691   1.87525
   A23        1.88370  -0.00098   0.00373  -0.01389  -0.01019   1.87351
   A24        1.88518  -0.00167   0.00353  -0.02553  -0.02191   1.86327
   A25        1.93303   0.00218  -0.00311   0.02287   0.01967   1.95270
   A26        1.92758   0.00224  -0.00235   0.01709   0.01468   1.94226
   A27        1.95931  -0.00135  -0.00675   0.00847   0.00179   1.96111
   A28        1.88491  -0.00158   0.00357  -0.01263  -0.00928   1.87563
   A29        1.87622  -0.00030   0.00477  -0.01349  -0.00868   1.86754
   A30        1.88005  -0.00138   0.00424  -0.02510  -0.02076   1.85929
    D1        3.07619   0.00189   0.00907   0.01563   0.02466   3.10085
    D2        1.03954  -0.00025   0.00106   0.00759   0.00855   1.04809
    D3       -1.08527   0.00066   0.00528   0.00868   0.01382  -1.07145
    D4        1.04612   0.00123   0.00015   0.02471   0.02495   1.07107
    D5       -0.99053  -0.00091  -0.00786   0.01667   0.00884  -0.98169
    D6       -3.11534   0.00000  -0.00364   0.01775   0.01410  -3.10123
    D7       -1.06449   0.00053   0.00240   0.00173   0.00424  -1.06025
    D8       -3.10114  -0.00161  -0.00561  -0.00631  -0.01187  -3.11301
    D9        1.05724  -0.00070  -0.00139  -0.00522  -0.00660   1.05064
   D10       -1.53018  -0.00113  -0.00939   0.00209  -0.00743  -1.53761
   D11        0.55716  -0.00026  -0.00841   0.01212   0.00374   0.56089
   D12        2.65564  -0.00136  -0.00898  -0.00231  -0.01136   2.64428
   D13        0.51339   0.00077  -0.00234   0.00877   0.00647   0.51986
   D14        2.60073   0.00165  -0.00136   0.01880   0.01763   2.61837
   D15       -1.58397   0.00055  -0.00193   0.00437   0.00254  -1.58144
   D16        2.61364   0.00082  -0.00315   0.02249   0.01922   2.63286
   D17       -1.58221   0.00169  -0.00217   0.03252   0.03039  -1.55182
   D18        0.51627   0.00059  -0.00274   0.01809   0.01529   0.53156
   D19       -3.12341   0.00027  -0.00252   0.02364   0.02109  -3.10232
   D20       -1.08444   0.00061   0.00516   0.01351   0.01849  -1.06595
   D21        1.05590  -0.00052  -0.00121  -0.00204  -0.00321   1.05269
   D22       -0.99516  -0.00078  -0.00722   0.01982   0.01265  -0.98252
   D23        1.04381  -0.00044   0.00047   0.00970   0.01005   1.05386
   D24       -3.09904  -0.00157  -0.00590  -0.00585  -0.01165  -3.11069
   D25        1.04102   0.00130   0.00086   0.02719   0.02813   1.06915
   D26        3.08000   0.00165   0.00854   0.01706   0.02553   3.10553
   D27       -1.06285   0.00051   0.00217   0.00151   0.00383  -1.05902
   D28        2.70770   0.00122   0.00055   0.05098   0.05145   2.75914
   D29       -1.49192   0.00217   0.00205   0.06102   0.06310  -1.42882
   D30        0.60956   0.00094   0.00106   0.04573   0.04672   0.65628
   D31        0.61449   0.00078   0.00038   0.03349   0.03394   0.64844
   D32        2.69806   0.00173   0.00188   0.04353   0.04560   2.74366
   D33       -1.48365   0.00051   0.00090   0.02824   0.02922  -1.45443
   D34       -1.42827  -0.00132  -0.00678   0.02590   0.01900  -1.40927
   D35        0.65530  -0.00037  -0.00528   0.03593   0.03065   0.68595
   D36        2.75678  -0.00159  -0.00626   0.02064   0.01427   2.77105
         Item               Value     Threshold  Converged?
 Maximum Force            0.019828     0.000450     NO 
 RMS     Force            0.004931     0.000300     NO 
 Maximum Displacement     0.320017     0.001800     NO 
 RMS     Displacement     0.081995     0.001200     NO 
 Predicted change in Energy=-3.518184D-03
 Lowest energy point so far.  Saving SCF results.
 GradGradGradGradGradGradGradGradGradGradGradGradGradGradGradGradGradGrad

 Leave Link  103 at Fri Nov  3 15:08:09 2017, MaxMem=   134217728 cpu:               0.0 elap:               0.0
 (Enter /n/sw/g16_nehalem/g16/l202.exe)
                          Input orientation:                          
 ---------------------------------------------------------------------
 Center     Atomic      Atomic             Coordinates (Angstroms)
 Number     Number       Type             X           Y           Z
 ---------------------------------------------------------------------
      1          6           0       -5.552875    0.958054   -0.031352
      2          1           0       -5.229220    1.493633    0.893473
      3          1           0       -6.666855    0.918610   -0.010385
      4          6           0       -5.014762   -0.454735    0.001340
      5          1           0       -5.368299   -1.011135   -0.898563
      6          1           0       -5.419586   -0.972734    0.902676
      7          6           0       -3.503297   -0.491324    0.032094
      8          1           0       -3.169880   -1.554879    0.013823
      9          1           0       -3.102636   -0.005325   -0.889683
     10          6           0       -2.960422    0.213961    1.260028
     11          1           0       -1.941823   -0.122125    1.504118
     12          1           0       -2.921209    1.304984    1.109851
     13          1           0       -3.586544    0.037971    2.149815
     14          6           0       -5.067809    1.705387   -1.261448
     15          1           0       -5.786839    2.472645   -1.585127
     16          1           0       -4.108211    2.211529   -1.069349
     17          1           0       -4.902419    1.035311   -2.121326
 ---------------------------------------------------------------------
                    Distance matrix (angstroms):
                    1          2          3          4          5
     1  C    0.000000
     2  H    1.116646   0.000000
     3  H    1.114876   1.792876   0.000000
     4  C    1.512152   2.153608   2.148401   0.000000
     5  H    2.159590   3.082953   2.489784   1.115525   0.000000
     6  H    2.148980   2.473720   2.442651   1.115622   1.802378
     7  C    2.511073   2.767822   3.463787   1.512220   2.148152
     8  H    3.463458   3.782604   4.283407   2.148037   2.441547
     9  H    2.769205   3.154184   3.785561   2.156876   2.478903
    10  C    2.990343   2.630470   3.980971   2.500353   3.458070
    11  H    4.069908   3.713562   5.069791   3.436848   4.278312
    12  H    2.889354   2.325795   3.928623   2.950995   3.922548
    13  H    3.077418   2.528979   3.863976   2.626502   3.683461
    14  C    1.518859   2.171308   2.177413   2.502713   2.757077
    15  H    2.182417   2.722657   2.381022   3.417972   3.575370
    16  H    2.176164   2.371646   3.056092   3.012834   3.464470
    17  H    2.190217   3.066899   2.753711   2.595875   2.429019
                    6          7          8          9         10
     6  H    0.000000
     7  C    2.159128   0.000000
     8  H    2.487998   1.114743   0.000000
     9  H    3.084913   1.116421   1.794983   0.000000
    10  C    2.753804   1.516563   2.173866   2.165541   0.000000
    11  H    3.630442   2.177467   2.404555   2.662971   1.100035
    12  H    3.387154   2.174192   3.072773   2.397491   1.102009
    13  H    2.436581   2.184451   2.696895   3.078082   1.102144
    14  C    3.461144   2.991069   3.982184   2.631853   3.608778
[...]
   yxz       -0.138908D+02     -0.120005D+00     -0.445388D-01
   yyz       -0.295307D+01     -0.255122D-01     -0.946861D-02
   zxz        0.468007D-01      0.404322D-03      0.150060D-03
   zyz        0.597305D-01      0.516025D-03      0.191518D-03
   zzz        0.170890D+01      0.147636D-01      0.547937D-02

 ----------------------------------------------------------------------
 1\1\GINC-HOLY2A09307\Freq\RPDDG\ZDO\C5H12\ROOT\03-Nov-2017\0\\#P Geom=
 AllCheck Guess=TCheck SCRF=Check GenChk RPDDG/ZDO Freq\\pentane confor
 mation 3\\0,1\C,-5.485865161,1.0668205349,-0.1171503589\H,-5.049821156
 9,1.7341126277,0.6550931312\H,-6.5748439975,1.0489233913,0.0925178673\
 C,-4.9279092252,-0.3457879938,-0.0032222692\H,-5.2443224212,-0.9443413
 896,-0.8845439239\H,-5.3823282036,-0.8554308468,0.8736264371\C,-3.4098
 852387,-0.3781767803,0.1162822418\H,-3.0471343262,-1.4042861447,-0.097
 4144074\H,-2.933055245,0.2668013533,-0.6507984883\C,-2.9497902781,0.03
 69024331,1.5002443719\H,-1.867474375,-0.0870932344,1.6112638273\H,-3.1
 756464253,1.0880540988,1.7157960696\H,-3.4297694379,-0.5604065229,2.28
 49719346\C,-5.2517866524,1.650013044,-1.4971699011\H,-5.7433316216,2.6
 226298497,-1.6043731936\H,-4.1868992231,1.8042592797,-1.7084198217\H,-
 5.6428219514,0.99683475,-2.2867192265\\Version=ES64L-G16RevA.03\State=
 1-A\HF=-0.0541711\RMSD=8.284e-10\RMSF=8.605e-06\ZeroPoint=0.1550627\Th
 ermal=0.1617587\Dipole=0.0037322,0.0053623,0.0000364\DipoleDeriv=-0.11
 78703,0.0081153,-0.0135137,-0.0042081,0.0003859,-0.0818336,0.0076378,-
 0.0707048,-0.0197213,0.0670305,0.001932,0.0167798,-0.0118692,0.0327525
 ,-0.0011407,-0.0076201,0.006528,0.0362756,0.0283137,0.0004506,-0.00317
 2,0.0173432,0.0273287,0.0175145,0.0098076,0.0177759,0.0348688,-0.01738
 3,-0.0653896,-0.0071792,-0.0652762,-0.0660393,0.005105,-0.036929,0.025
 8126,-0.1414468,0.0240406,0.0139487,-0.0228062,0.0070692,0.0384504,-0.
 0180337,-0.0014257,-0.0045882,0.0466259,0.0298016,0.0091684,0.008963,0
 .0159844,0.0324717,0.0276372,0.0038299,0.0028893,0.0468363,-0.0157437,
 0.0334559,0.0722141,0.0456639,-0.1025978,0.0408734,0.0692108,0.0170969
 ,-0.0188646,0.0217619,0.0150246,-0.0174872,-0.0019481,0.0340991,-0.003
 1254,-0.0133263,-0.0153217,0.0346598,0.0401596,-0.0219029,0.0068036,-0
 .007938,0.0596899,-0.0152407,-0.0087862,0.004905,0.0362117,-0.2297324,
 0.0009401,-0.0326559,0.0131149,-0.1799403,0.0106314,-0.0181815,0.00632
 28,-0.1579083,0.0419948,0.0043372,0.0007008,-0.004306,0.0684073,-0.008
 5225,-0.0246764,-0.0062734,0.0436989,0.0765289,-0.0070857,-0.0002089,0
 .0113411,0.0431885,0.0017401,0.0055958,-0.0242781,0.04917,0.0642078,-0
 .0099753,0.0007799,-0.0156564,0.0571681,-0.0055212,0.0117391,0.0115183
 ,0.0371619,-0.1904259,0.0276795,-0.021292,0.0154771,-0.219359,0.026651
 4,-0.0122485,0.0146242,-0.1577886,0.0652024,0.0041594,0.0083213,0.0129
 418,0.0450422,0.002343,-0.0025622,0.0253319,0.0438601,0.0457504,-0.000
 034,-0.0017109,-0.0185952,0.0738739,-0.0003472,0.024607,0.003313,0.049
 2805,0.0663647,-0.0148241,0.0054664,-0.0091382,0.05508,0.0012668,-0.00
 66731,-0.0149511,0.0370783\Polar=35.9392625,-1.1040702,35.1298213,0.95
 72433,-0.6684515,35.0754762\HyperPolar=12.471086,0.6069818,-5.493108,9
 .4729955,4.272424,1.5943122,-4.126483,-8.9714616,-12.9416713,-0.154929
 1\PG=C01 [X(C5H12)]\NImag=0\\0.53729168,-0.00488863,0.52452342,-0.0048
 5438,0.00396750,0.53334427,-0.07991671,-0.05771761,-0.06646387,0.08780
 169,-0.05670988,-0.12333365,-0.09626020,0.05784738,0.13793168,-0.06449
 541,-0.09496604,-0.14899206,0.07501310,0.10542235,0.16450204,-0.266748
 89,-0.00602882,0.04092821,-0.01449723,-0.00403187,-0.00150215,0.290943
 84,-0.00803969,-0.03977699,0.00045576,-0.01420905,0.00006680,-0.000416
 11,0.00467737,0.04439001,0.03829207,0.00000842,-0.04678322,-0.01480319
 ,-0.00276515,0.00259392,-0.04433736,-0.00542665,0.04843916,-0.09888236
 ,0.05776214,-0.00380421,0.00835214,-0.00724020,0.00164172,-0.00746886,
 0.02327606,-0.00047972,0.52888930,0.05895154,-0.23428776,0.00742772,0.
 00607410,-0.01754464,-0.00230640,0.00426581,0.00018319,0.00009254,0.00
 494771,0.53263265,-0.00333808,0.00801211,-0.07723356,0.00604327,-0.014
 88312,0.00432626,0.00106308,-0.00223676,0.00389677,0.01077414,-0.00751
 779,0.54137495,0.00551111,0.00455769,0.00607713,-0.00040931,0.00111326
 ,-0.00049536,0.00007241,-0.00017528,-0.00004157,-0.05714265,-0.0331526
 0,-0.04922126,0.06408453,-0.00280943,-0.01510319,-0.01862094,0.0014225
 5,-0.00222800,0.00052613,-0.00020981,0.00024825,0.00006526,-0.03401697
 ,-0.10357207,-0.09656939,0.03430635,0.11915888,0.00097818,-0.00194519,
 0.00551026,-0.00031234,0.00062853,-0.00004498,-0.00000983,0.00017633,-
 0.00005604,-0.05113324,-0.09826670,-0.18941615,0.05918878,0.10622419,0
 .20372772,0.00587748,0.00381483,-0.00573565,-0.00009104,0.00000388,-0.
 00002259,-0.00133224,0.00232416,-0.00108901,-0.07660623,-0.04174450,0.
 07361975,0.00392998,0.00112236,-0.00283525,0.09072251,-0.00591627,-0.0
 1159697,0.01937405,0.00006711,0.00058221,-0.00002360,0.00258708,-0.003
 32103,0.00165560,-0.04087622,-0.08555077,0.08015478,0.00297182,0.00546
 538,-0.00816193,0.04474956,0.09413588,-0.00026922,0.00382162,0.0021734
 2,0.00006034,-0.00009557,0.00000153,-0.00121900,0.00182865,-0.00048557
 ,0.07455038,0.08253421,-0.18798036,0.00677612,0.00564471,-0.02090407,-
 0.07918235,-0.09287215,0.20213204,-0.02095397,0.01616937,-0.00211449,-
 0.00151431,0.00243741,0.00053960,0.00000500,0.00049330,-0.00028087,-0.
 25592311,-0.00047133,-0.00935379,-0.00870571,-0.00160454,-0.00372619,-
 0.01325937,-0.00239035,0.00207938,0.52930439,0.03190692,-0.00313980,0.
 00237195,0.00214654,-0.00202087,-0.00084124,0.00088577,-0.00319661,0.0
 0041780,0.00071832,-0.07720763,0.00034539,-0.01124688,0.00309116,-0.00
 111447,-0.00984829,0.00358451,-0.00028837,-0.00784941,0.53253797,-0.00
 287384,0.00118842,0.00235247,0.00079850,-0.00092255,0.00008365,0.00002
 269,-0.00001247,0.00029192,-0.00896286,0.00098057,-0.07728959,-0.02026
 158,-0.00136266,0.00206959,0.01944711,0.00076001,0.00559476,-0.0054563
 3,0.00314959,0.53335832,-0.00325733,-0.00071809,0.00000213,0.00005606,
 -0.00016792,0.00000940,-0.00010314,0.00056626,-0.00007582,-0.00972995,
 0.02242345,0.00253316,-0.00466669,0.00109141,-0.00214889,0.00035267,-0
 .00007027,-0.00016694,-0.06274651,0.06773784,0.01410508,0.07124255,-0.
 00032236,0.00006689,-0.00001935,-0.00005418,0.00003923,0.00002060,0.00
 001154,0.00011077,-0.00000250,0.00343033,0.00243737,-0.00021353,0.0013
 5294,0.00002345,0.00051488,-0.00010489,-0.00003173,-0.00005250,0.06976
 050,-0.24348748,-0.03930184,-0.07695908,0.26370595,-0.00050448,0.00011
 412,0.00029071,-0.00003307,0.00000126,-0.00003902,-0.00002426,0.000074
 83,-0.00002560,-0.00028685,0.00049449,0.00390668,-0.00194003,0.0004521
 8,-0.00049627,-0.00007415,0.00001599,-0.00005734,0.01361663,-0.0366825
 6,-0.04707703,-0.01064662,0.04430240,0.04882214,-0.00346148,0.00171217
 ,0.00113855,0.00001623,0.00004590,0.00002473,0.00011379,-0.00014638,-0
 .00001293,-0.01409968,-0.01562535,0.01590367,0.00047703,0.00021387,0.0
 0011344,-0.00283001,0.00021613,-0.00070721,-0.08126478,-0.05772694,0.0
 6707951,0.00426358,0.00293266,-0.00253548,0.09467512,0.00142296,-0.000
 07750,-0.00042317,-0.00013564,-0.00001694,0.00000338,-0.00003282,-0.00
 001849,0.00003055,-0.00224227,0.00484560,-0.00049490,0.00027779,0.0000
 1340,-0.00002223,0.00052581,0.00019575,0.00007747,-0.05873965,-0.12348
 203,0.09571004,-0.00730764,-0.01876270,0.01469890,0.06098279,0.1327136
 6,0.00097074,-0.00020772,0.00008793,0.00000490,-0.00002408,-0.00003411
 ,-0.00001565,-0.00001641,-0.00003906,0.00265148,-0.00079312,0.00439027
 ,0.00001760,0.00003020,0.00000209,-0.00067338,0.00028351,-0.00004822,0
 .06654545,0.09341764,-0.14749423,-0.00016478,0.00144977,0.00266976,-0.
 07269101,-0.10692860,0.16282976,-0.00133239,0.00036058,-0.00135184,-0.
 00116054,0.00075091,-0.00041146,0.00005496,-0.00013048,-0.00003355,-0.
 02072397,-0.01001278,-0.03356088,-0.00330628,0.00037599,0.,-0.00459165
 ,-0.00191640,-0.00171554,-0.09240694,-0.01485236,-0.05066319,0.0051626
 9,0.00070400,0.00432964,0.00593734,0.00247192,0.00624778,0.54637205,0.
 00098629,-0.00013974,0.00047493,0.00148318,-0.00058408,0.00087709,0.00
 003215,0.00006745,0.00005506,-0.00476570,0.00289357,-0.00111978,0.0001
 9824,0.00031524,-0.00008511,-0.00240695,-0.00042425,-0.00085336,-0.014
 72400,-0.09296795,-0.05010953,-0.00584676,-0.00372871,-0.02226629,0.00
 368255,0.00835621,0.01160422,0.00226614,0.52240970,-0.00115223,0.00019
 217,-0.00055983,-0.00033569,0.00047087,-0.00006114,-0.00000076,-0.0000
 2156,0.00000649,-0.01738781,-0.00217091,-0.00727188,0.00036332,0.00014
 577,0.00009007,-0.00161028,-0.00060371,0.00057033,-0.04973631,-0.05033
 198,-0.24399437,-0.00166862,-0.00535238,-0.00478973,-0.00429975,-0.004
 15923,-0.01815570,0.00866944,0.00355517,0.52906210,0.00003484,-0.00001
 898,0.00000016,-0.00000138,-0.00002018,0.00001012,0.00000600,-0.000008
 02,0.00000741,0.00003278,-0.00014390,-0.00060694,-0.00004790,0.0000059
 2,-0.00003339,0.00007325,0.00003200,0.00000003,-0.00534174,-0.00053526
 ,-0.00508399,-0.00053571,-0.00081081,-0.00089000,-0.00010513,0.0001208
 2,-0.00025017,-0.29193768,0.03019771,-0.02227415,0.32104323,0.00006809
 ,0.00004074,0.00008125,-0.00005886,-0.00000754,-0.00006681,-0.00000671
 ,0.00000441,0.00000089,-0.00020955,-0.00007601,-0.00115046,-0.00018685
 ,0.00003397,0.00000520,0.00003470,-0.00000619,-0.00000814,-0.00701182,
 0.00402242,-0.00122211,-0.00073463,-0.00071246,-0.00092470,0.00009352,
 0.00000101,0.00022905,0.03125489,-0.04315703,0.00296269,-0.03380326,0.
 04163436,0.00009895,-0.00009455,0.00004605,-0.00000251,0.00000533,0.00
 000199,0.00000957,0.00000376,0.00000038,-0.00042912,-0.00112059,-0.003
 06494,-0.00056242,0.00006150,0.00007320,0.00017266,-0.00001133,-0.0000
 3211,-0.02415704,0.00178038,-0.00168891,-0.00074110,-0.00095732,-0.000
 75391,-0.00015590,0.00017646,-0.00032901,-0.01955057,0.00250057,-0.041
 67055,0.02616666,-0.00060413,0.04383368,-0.00053504,-0.00039086,-0.000
 75348,-0.00485344,0.00256720,-0.00238678,0.00000318,0.00002350,0.00002
 620,-0.00079435,-0.00071581,-0.00067599,0.00001054,0.00005511,0.000050
 38,-0.00010098,-0.00008180,-0.00000916,0.00567634,-0.00803037,-0.00139
 382,-0.00014121,-0.00006471,-0.00122101,0.00011178,0.00018214,0.000389
 36,-0.05128188,0.05185523,0.00955266,-0.00844249,0.02465752,0.00269741
 ,0.05548778,0.00020392,0.00039683,0.00041377,0.00076258,-0.00052540,0.
 00016055,-0.00001816,-0.00001952,-0.00003462,-0.00071394,-0.00047040,-
 0.00051661,0.00005026,-0.00000676,0.00003034,-0.00006926,-0.00008748,-
 0.00003553,-0.00035362,-0.00454207,-0.00673665,-0.00001420,0.00020437,
 -0.00029941,0.00005923,0.00013074,-0.00022018,0.05189080,-0.27449589,-
 0.04442794,0.00584388,-0.00529783,-0.00094780,-0.05917944,0.30308275,-
 0.00019316,-0.00008820,-0.00035952,-0.00328244,0.00152455,-0.00143050,
 0.00002294,0.00001282,0.00001736,-0.00084289,-0.00061687,-0.00028391,0
 .00009053,0.00004063,0.00001161,-0.00000458,-0.00002247,0.00000334,0.0
 0403952,-0.02441284,-0.00534488,-0.00124736,-0.00043205,-0.00278559,0.
 00034212,-0.00015515,-0.00024597,0.00935917,-0.04259916,-0.04813425,0.
 00015146,-0.00015717,0.00249102,-0.00590126,0.05093996,0.05347352,-0.0
 0010951,0.00004634,-0.00006029,0.00001130,0.00002842,0.00000955,-0.000
 01694,0.00001666,-0.00001919,-0.00074521,0.00055525,-0.00262958,0.0000
 1639,0.00001594,0.00003294,-0.00185033,-0.00061523,-0.00029297,0.00758
 633,0.00480785,-0.00505594,0.00002262,0.00009519,0.00024800,-0.0003090
 3,-0.00064281,-0.00114495,-0.09074728,-0.06305640,0.07998118,-0.014785
 48,-0.01411221,0.01644987,0.00485255,0.00153824,-0.00255145,0.09608589
 ,0.00007469,-0.00006486,0.00005375,0.00001959,-0.00003723,0.00002083,0
 .00000904,0.00000222,0.00001287,0.00033325,0.00034787,0.00023605,0.000
 05626,-0.00000775,-0.00002926,0.00001918,-0.00024834,0.00032835,0.0037
 4266,0.00806914,-0.00379548,0.00008576,0.00011360,0.00001320,-0.000684
 83,-0.00026329,-0.00108833,-0.06323719,-0.11858401,0.09969578,-0.00086
 840,0.00351114,-0.00081362,-0.01088356,-0.01833178,0.01592366,0.071347
 43,0.12547949,-0.00001492,0.00003748,-0.00006131,-0.00000017,0.0000323
 5,-0.00000878,-0.00001063,-0.00001419,0.00000610,-0.00221108,0.0005872
 3,-0.00249645,0.00016923,0.00000983,0.00001893,-0.00179855,-0.00039083
 ,-0.00116008,0.00848189,0.01101702,-0.01993388,0.00018525,0.00005691,0
 .00030488,-0.00104881,-0.00120043,-0.00214220,0.07889415,0.09792459,-0
 .16506701,0.00282595,0.00083083,0.00109432,-0.00045218,0.00166477,0.00
 258448,-0.08501965,-0.11053016,0.18681700,-0.08346842,-0.01171483,0.02
 986643,0.00607938,0.00375328,-0.00860018,-0.00107206,-0.00825657,0.022
 35022,0.00490767,0.00471789,-0.01055367,0.00048099,-0.00053169,0.00020
 029,-0.00031047,0.00131048,0.00008541,-0.00071814,0.00121309,-0.000909
 30,0.00009810,0.00004844,-0.00006272,-0.00137458,0.00140411,-0.0009627
 1,-0.00001779,0.00011228,-0.00013773,0.00001096,0.00000621,0.00001400,
 -0.00000069,0.00000376,0.00001515,-0.00001772,-0.00001894,-0.00000401,
 0.52381387,-0.01185159,-0.10281409,0.06563857,0.00253929,0.00825916,-0
 .00974262,-0.00160989,0.00237287,0.00371710,-0.00061646,-0.02294672,0.
 03176602,-0.00004064,-0.00551649,0.00187123,0.00148755,-0.00267876,0.0
 0002010,0.00058508,-0.00075997,0.00110292,-0.00011455,0.00002436,0.000
 01191,0.00066988,-0.00036324,0.00008139,0.00005846,0.00004439,0.000114
 01,-0.00000447,0.00001801,0.00002814,0.00003462,-0.00005879,0.00005051
 ,-0.00001016,0.00002249,-0.00000675,-0.00604475,0.54508661,0.03039630,
 0.06484851,-0.24306432,0.00250392,0.00563360,-0.01820049,0.00444197,0.
 00343303,-0.00465455,-0.00397133,0.01698755,-0.00705863,0.00000516,0.0
 0168542,0.00058981,-0.00000358,-0.00040174,0.00008839,-0.00057781,0.00
 101636,-0.00055396,0.00001971,0.00000847,0.00000650,-0.00055827,0.0001
 5335,-0.00006483,-0.00015424,0.00009065,-0.00008271,-0.00000589,0.0000
 0722,0.00001274,0.00005080,-0.00000168,0.00002780,0.00003211,-0.000016
 44,0.00001863,-0.00036624,-0.00926869,0.52892880,0.00538573,-0.0031220
 8,-0.00061344,-0.00008004,0.00010468,-0.00030271,-0.00019154,-0.000610
 46,0.00055460,0.00004626,-0.00020924,0.00087681,-0.00001862,0.00000125
 ,0.00000767,0.00008396,-0.00013983,-0.00001718,0.00002395,0.00006464,-
 0.00007584,0.00000939,-0.00000544,0.00000176,0.00001872,-0.00005161,0.
 00006602,0.00001667,0.00000840,-0.00000874,0.00000186,-0.00000018,0.00
 000003,-0.00001219,0.00000657,-0.00001121,-0.00000511,-0.00000187,-0.0
 0001015,-0.09306137,0.10483371,-0.01009468,0.09724144,0.00346099,-0.00
 681981,0.00517419,0.00013111,-0.00002443,0.00016022,-0.00068746,-0.001
 06956,0.00114736,-0.00014516,-0.00010495,0.00098419,-0.00000241,0.0000
 8629,0.00000343,0.00005573,-0.00009980,0.00002876,-0.00002357,0.000051
 98,-0.00002840,-0.00000673,0.00000111,-0.00000728,-0.00001262,-0.00002
 792,0.00001351,-0.00000229,0.00001249,0.00000299,0.00000041,0.00000194
 ,0.00000365,0.00000587,0.00000096,0.00000606,0.00000215,-0.00000009,0.
 00000092,0.10376062,-0.24218481,0.01908386,-0.11658941,0.26564705,-0.0
 1001351,0.02199817,-0.00157290,-0.00022080,0.00008929,-0.00033574,0.00
 063588,0.00101945,-0.00073381,0.00091230,0.00080779,-0.00304935,0.0000
 7070,-0.00015727,-0.00003271,-0.00025310,0.00050457,0.00007506,0.00012
 280,-0.00005962,0.00004579,-0.00000021,-0.00001030,0.00000029,-0.00000
 590,0.00000021,0.00000226,-0.00002149,-0.00002289,0.00001251,-0.000003
 37,-0.00000125,-0.00000903,-0.00000133,0.00002000,-0.00001526,0.000007
 51,-0.00000647,0.00001033,-0.00872196,0.01669396,-0.04152923,0.0091796
 9,-0.02348044,0.04362741,-0.00068006,-0.00271858,0.00583558,0.00004818
 ,0.00003560,0.00034011,0.00018889,0.00010443,-0.00013279,-0.00004546,-
 0.00044145,0.00024897,-0.00004005,-0.00004695,0.00002981,-0.00003895,0
 .00003222,-0.00001097,0.00034780,0.00053342,-0.00064501,-0.00001868,-0
 .00002636,0.00004135,-0.00212207,0.00176603,-0.00097426,-0.00006425,-0
 .00001979,0.00001881,-0.00000458,0.00000942,-0.00001913,0.00002515,-0.
 00000231,0.00000645,0.00000967,-0.00000286,0.00001189,-0.28164762,-0.0
 3353758,0.04403726,-0.01562099,0.00318816,0.00178517,0.31209724,-0.010
 49239,0.00166847,0.00365164,0.00015867,0.00019510,-0.00028584,0.000052
 97,-0.00013928,0.00126429,-0.00044308,-0.00123391,0.00080962,-0.000059
 17,-0.00014871,0.00001969,0.00003692,0.00004371,-0.00005750,-0.0000664
 1,-0.00048810,0.00056226,0.00001551,0.00000236,-0.00001254,0.00358033,
 -0.00326548,0.00218500,0.00001140,0.00000518,-0.00004712,0.00000871,-0
 .00000657,-0.00000564,-0.00001835,0.00001755,-0.00000660,-0.00001077,-
 0.00001197,-0.00001676,-0.03356388,-0.04447213,0.00637161,0.02201633,0
 .00187412,-0.00213333,0.03598692,0.04692293,0.02425648,0.00471495,-0.0
 0520021,0.00026380,-0.00026427,-0.00024037,-0.00001783,0.00133432,-0.0
 0277224,0.00028434,0.00100135,-0.00027359,0.00001899,0.00001125,0.0000
 0376,-0.00000648,-0.00009899,0.00001072,0.00001764,0.00021380,-0.00035
 848,-0.00000411,-0.00002616,0.00001732,-0.00255633,0.00254434,-0.00141
 968,-0.00004238,-0.00003193,0.00002730,-0.00000948,0.00000847,-0.00001
 535,0.00000847,-0.00000359,-0.00001881,0.00000962,-0.00000401,0.000009
 51,0.04225644,0.00592035,-0.04778608,0.00026379,-0.00008093,0.00248585
 ,-0.04878203,-0.01207113,0.05302014,0.00524521,0.00289528,0.00190353,0
 .00015904,-0.00051787,0.00062833,0.00004283,0.00009419,0.00007549,-0.0
 0006645,0.00058131,-0.00112273,-0.00024572,0.00060861,-0.00040243,-0.0
 0002862,0.00003993,0.00003891,-0.00010933,0.00007505,-0.00007107,-0.00
 000842,0.00001223,-0.00001872,-0.00004680,-0.00000201,-0.00001644,0.00
 002708,-0.00000246,0.00002654,-0.00000081,-0.00000034,0.00000865,-0.00
 000502,-0.00000827,0.00000702,0.00000187,0.00000980,0.00000184,-0.0737
 0187,-0.05637833,-0.06575528,0.00616185,0.00686454,0.00652767,-0.01243
 428,-0.01721371,-0.01596091,0.07500941,0.00395477,0.01045783,0.0062384
 7,-0.00047681,-0.00075143,0.00145754,0.00010379,0.00009553,-0.00023879
 ,0.00080183,-0.00034542,0.00239422,-0.00002080,-0.00185311,0.00015100,
 -0.00000084,0.00003791,-0.00002066,0.00004629,-0.00006482,0.00003786,0
 .00001968,-0.00000639,0.00001352,0.00000709,0.00002121,-0.00001586,0.0
 0000653,-0.00002226,-0.00002456,0.00000379,-0.00000444,-0.00000486,-0.
 00001625,0.00000267,-0.00000772,-0.00000593,0.00000334,-0.00000281,-0.
 05619934,-0.13403265,-0.10963100,-0.00630554,-0.01734457,-0.01526187,-
 0.00486033,-0.00096321,-0.00316785,0.06294204,0.14476982,-0.00728340,-
 0.01160177,-0.01997841,0.00076621,0.00140680,-0.00212223,0.00001317,-0
 .00019477,0.00029801,-0.00130514,0.00187884,-0.00247641,-0.00025542,0.
 00181314,-0.00114677,0.00004945,-0.00016169,0.00001822,-0.00004007,0.0
 0000105,-0.00006138,0.00000968,0.00001488,0.00000623,-0.00003041,-0.00
 001094,-0.00000908,0.00000494,0.00000589,0.00001863,-0.00000442,0.0000
 0913,0.00001036,0.00001971,-0.00000538,0.00000953,0.00000324,-0.000000
 75,0.00000546,-0.06446955,-0.10799814,-0.16667762,0.00018362,-0.003012
 07,0.00101845,-0.00179120,-0.00022763,0.00251017,0.07412961,0.11808338
 ,0.18857679\\-0.00000702,0.00000976,0.00001577,-0.00001747,-0.00000154
 ,-0.00000885,0.00001614,0.00000618,-0.00000231,-0.00000781,-0.00002158
 ,0.00000517,0.00000367,0.00000193,0.00001467,0.00000567,0.00000499,-0.
 00001672,0.00001675,-0.00000267,-0.00001030,-0.00000286,0.00001638,0.0
 0000229,-0.00000047,-0.00001288,0.00000645,-0.00000099,-0.00000385,-0.
 00001086,-0.00000684,-0.00000502,0.00000439,0.00000146,-0.00000384,0.0
 0000521,0.00000542,0.00000604,0.00000332,-0.00001163,0.00000570,-0.000
 00533,0.00000634,-0.00000716,0.00000035,-0.00000205,0.00000339,-0.0000
 0419,0.00000171,0.00000416,0.00000093\\\@


 Luck is a matter of preparation meeting opportunity.
                                    -- Oprah Winfrey
 Job cpu time:       0 days  0 hours  0 minutes  2.2 seconds.
 Elapsed time:       0 days  0 hours  0 minutes  2.0 seconds.
 File lengths (MBytes):  RWF=     10 Int=      0 D2E=      0 Chk=      2 Scr=      1
 Normal termination of Gaussian 16 at Fri Nov  3 15:08:25 2017.
