 Entering Gaussian System, Link 0=g16
 Input=pentane_conformation_4.gjf
 Output=pentane_conformation_4.out
 Initial command:
 /n/sw/g16_nehalem/g16/l1.exe "/scratch/dhuang9_pentane_conformation_4/Gau-58825.inp" -scrdir="/scratch/dhuang9_pentane_conformation_4/"
 Entering Link 1 = /n/sw/g16_nehalem/g16/l1.exe PID=     59143.
  
 Copyright (c) 1988,1990,1992,1993,1995,1998,2003,2009,2016,
            Gaussian, Inc.  All Rights Reserved.
  
 This is part of the Gaussian(R) 16 program.  It is based on
 the Gaussian(R) 09 system (copyright 2009, Gaussian, Inc.),
 the Gaussian(R) 03 system (copyright 2003, Gaussian, Inc.),
 the Gaussian(R) 98 system (copyright 1998, Gaussian, Inc.),
 the Gaussian(R) 94 system (copyright 1995, Gaussian, Inc.),
 the Gaussian 92(TM) system (copyright 1992, Gaussian, Inc.),
 the Gaussian 90(TM) system (copyright 1990, Gaussian, Inc.),
 the Gaussian 88(TM) system (copyright 1988, Gaussian, Inc.),
 the Gaussian 86(TM) system (copyright 1986, Carnegie Mellon
 University), and the Gaussian 82(TM) system (copyright 1983,
 Carnegie Mellon University). Gaussian is a federally registered
 trademark of Gaussian, Inc.
  
 This software contains proprietary and confidential information,
 including trade secrets, belonging to Gaussian, Inc.
  
 This software is provided under written license and may be
 used, copied, transmitted, or stored only in accord with that
 written license.
  
 The following legend is applicable only to US Government
 contracts under FAR:
  
                    RESTRICTED RIGHTS LEGEND
  
 Use, reproduction and disclosure by the US Government is
 subject to restrictions as set forth in subparagraphs (a)
 and (c) of the Commercial Computer Software - Restricted
 Rights clause in FAR 52.227-19.
  
 Gaussian, Inc.
 340 Quinnipiac St., Bldg. 40, Wallingford CT 06492
  
  
 ---------------------------------------------------------------
 Warning -- This program may not be used in any manner that
 competes with the business of Gaussian, Inc. or will provide
 assistance to any competitor of Gaussian, Inc.  The licensee
 of this program is prohibited from giving any competitor of
 Gaussian, Inc. access to this program.  By using this program,
 the user acknowledges that Gaussian, Inc. is engaged in the
 business of creating and licensing software in the field of
 computational chemistry and represents and warrants to the
 licensee that it is not a competitor of Gaussian, Inc. and that
 it will not use this program in any manner prohibited above.
 ---------------------------------------------------------------
  

 Cite this work as:
 Gaussian 16, Revision A.03,
 M. J. Frisch, G. W. Trucks, H. B. Schlegel, G. E. Scuseria, 
 M. A. Robb, J. R. Cheeseman, G. Scalmani, V. Barone, 
 G. A. Petersson, H. Nakatsuji, X. Li, M. Caricato, A. V. Marenich, 
 J. Bloino, B. G. Janesko, R. Gomperts, B. Mennucci, H. P. Hratchian, 
 J. V. Ortiz, A. F. Izmaylov, J. L. Sonnenberg, D. Williams-Young, 
 F. Ding, F. Lipparini, F. Egidi, J. Goings, B. Peng, A. Petrone, 
 T. Henderson, D. Ranasinghe, V. G. Zakrzewski, J. Gao, N. Rega, 
 G. Zheng, W. Liang, M. Hada, M. Ehara, K. Toyota, R. Fukuda, 
 J. Hasegawa, M. Ishida, T. Nakajima, Y. Honda, O. Kitao, H. Nakai, 
 T. Vreven, K. Throssell, J. A. Montgomery, Jr., J. E. Peralta, 
 F. Ogliaro, M. J. Bearpark, J. J. Heyd, E. N. Brothers, K. N. Kudin, 
 V. N. Staroverov, T. A. Keith, R. Kobayashi, J. Normand, 
 K. Raghavachari, A. P. Rendell, J. C. Burant, S. S. Iyengar, 
 J. Tomasi, M. Cossi, J. M. Millam, M. Klene, C. Adamo, R. Cammi, 
 J. W. Ochterski, R. L. Martin, K. Morokuma, O. Farkas, 
 J. B. Foresman, and D. J. Fox, Gaussian, Inc., Wallingford CT, 2016.
 
 ******************************************
 Gaussian 16:  ES64L-G16RevA.03 25-Dec-2016
                 3-Nov-2017 
 ******************************************
 %mem=1GB
 ------------------------
 #p pddg opt freq=noraman
 ------------------------
 1/18=20,19=15,26=1,38=1/1,3;
 2/9=110,12=2,17=6,18=5,40=1/2;
 3/5=2,25=1,41=4000000,71=1/1,2,3;
 4/35=1/1;
 5/5=2,35=1,38=5/2;
 6/7=2,8=2,9=2,10=2,28=1/1;
 7//1,2,3,16;
 1/18=20,19=15,26=1/3(2);
 2/9=110/2;
 99//99;
 2/9=110/2;
 3/5=2,25=1,41=4000000,71=1,135=20/1,2,3;
 4/5=5,16=3,35=1/1;
 5/5=2,35=1,38=5/2;
 7//1,2,3,16;
 1/18=20,19=15,26=1/3(-5);
 2/9=110/2;
 6/7=2,8=2,9=2,10=2,19=2,28=1/1;
 99/9=1/99;
 Leave Link    1 at Fri Nov  3 15:08:03 2017, MaxMem=   134217728 cpu:               0.0 elap:               0.1
 (Enter /n/sw/g16_nehalem/g16/l101.exe)
 ----------------------
 pentane conformation 4
 ----------------------
 Symbolic Z-matrix:
 Charge =  0 Multiplicity = 1
 C                    -5.83871   0.93548   0. 
 H                    -5.48206  -0.07333   0. 
 H                    -5.48204   1.43988  -0.87365 
 C                    -5.32537   1.66144   1.2574 
 H                    -4.25537   1.65973   1.25838 
 H                    -5.68364   1.15817   2.13106 
 C                    -5.83638   3.11418   1.256 
 H                    -5.48002   3.61847   2.12984 
 H                    -5.47781   3.61756   0.38254 
 C                    -7.37871   0.9355    0. 
 H                    -7.73536   1.85232  -0.42089 
 H                    -7.73539   0.1126   -0.58354 
 H                    -7.73538   0.8416    1.00443 
 C                    -7.37638   3.11664   1.25405 
 H                    -7.73177   3.11788   0.24479 
 H                    -7.73508   2.24322   1.75741 
 H                    -7.73229   3.99052   1.75859 
 
 ITRead=  0  0  0  0  0  0  0  0  0  0  0  0  0  0  0  0  0
 MicOpt= -1 -1 -1 -1 -1 -1 -1 -1 -1 -1 -1 -1 -1 -1 -1 -1 -1
 NAtoms=     17 NQM=       17 NQMF=       0 NMMI=      0 NMMIF=      0
                NMic=       0 NMicF=      0.
                    Isotopes and Nuclear Properties:
 (Nuclear quadrupole moments (NQMom) in fm**2, nuclear magnetic moments (NMagM)
  in nuclear magnetons)

  Atom         1           2           3           4           5           6           7           8           9          10
 IAtWgt=          12           1           1          12           1           1          12           1           1          12
 AtmWgt=  12.0000000   1.0078250   1.0078250  12.0000000   1.0078250   1.0078250  12.0000000   1.0078250   1.0078250  12.0000000
 NucSpn=           0           1           1           0           1           1           0           1           1           0
 AtZEff=   0.0000000   0.0000000   0.0000000   0.0000000   0.0000000   0.0000000   0.0000000   0.0000000   0.0000000   0.0000000
 NQMom=    0.0000000   0.0000000   0.0000000   0.0000000   0.0000000   0.0000000   0.0000000   0.0000000   0.0000000   0.0000000
 NMagM=    0.0000000   2.7928460   2.7928460   0.0000000   2.7928460   2.7928460   0.0000000   2.7928460   2.7928460   0.0000000
 AtZNuc=   6.0000000   1.0000000   1.0000000   6.0000000   1.0000000   1.0000000   6.0000000   1.0000000   1.0000000   6.0000000

  Atom        11          12          13          14          15          16          17
 IAtWgt=           1           1           1          12           1           1           1
 AtmWgt=   1.0078250   1.0078250   1.0078250  12.0000000   1.0078250   1.0078250   1.0078250
 NucSpn=           1           1           1           0           1           1           1
 AtZEff=   0.0000000   0.0000000   0.0000000   0.0000000   0.0000000   0.0000000   0.0000000
 NQMom=    0.0000000   0.0000000   0.0000000   0.0000000   0.0000000   0.0000000   0.0000000
 NMagM=    2.7928460   2.7928460   2.7928460   0.0000000   2.7928460   2.7928460   2.7928460
 AtZNuc=   1.0000000   1.0000000   1.0000000   6.0000000   1.0000000   1.0000000   1.0000000
 Leave Link  101 at Fri Nov  3 15:08:04 2017, MaxMem=   134217728 cpu:               0.3 elap:               0.5
 (Enter /n/sw/g16_nehalem/g16/l103.exe)

 GradGradGradGradGradGradGradGradGradGradGradGradGradGradGradGradGradGrad
 Berny optimization.
 Initialization pass.
                           ----------------------------
                           !    Initial Parameters    !
                           ! (Angstroms and Degrees)  !
 --------------------------                            --------------------------
 ! Name  Definition              Value          Derivative Info.                !
 --------------------------------------------------------------------------------
 ! R1    R(1,2)                  1.07           estimate D2E/DX2                !
 ! R2    R(1,3)                  1.07           estimate D2E/DX2                !
 ! R3    R(1,4)                  1.54           estimate D2E/DX2                !
 ! R4    R(1,10)                 1.54           estimate D2E/DX2                !
 ! R5    R(4,5)                  1.07           estimate D2E/DX2                !
 ! R6    R(4,6)                  1.07           estimate D2E/DX2                !
 ! R7    R(4,7)                  1.54           estimate D2E/DX2                !
 ! R8    R(7,8)                  1.07           estimate D2E/DX2                !
 ! R9    R(7,9)                  1.07           estimate D2E/DX2                !
 ! R10   R(7,14)                 1.54           estimate D2E/DX2                !
 ! R11   R(10,11)                1.07           estimate D2E/DX2                !
 ! R12   R(10,12)                1.07           estimate D2E/DX2                !
 ! R13   R(10,13)                1.07           estimate D2E/DX2                !
 ! R14   R(14,15)                1.07           estimate D2E/DX2                !
 ! R15   R(14,16)                1.07           estimate D2E/DX2                !
 ! R16   R(14,17)                1.07           estimate D2E/DX2                !
 ! A1    A(2,1,3)              109.4712         estimate D2E/DX2                !
 ! A2    A(2,1,4)              109.4712         estimate D2E/DX2                !
 ! A3    A(2,1,10)             109.4712         estimate D2E/DX2                !
 ! A4    A(3,1,4)              109.4713         estimate D2E/DX2                !
 ! A5    A(3,1,10)             109.4712         estimate D2E/DX2                !
 ! A6    A(4,1,10)             109.4712         estimate D2E/DX2                !
 ! A7    A(1,4,5)              109.4712         estimate D2E/DX2                !
 ! A8    A(1,4,6)              109.4712         estimate D2E/DX2                !
 ! A9    A(1,4,7)              109.4712         estimate D2E/DX2                !
 ! A10   A(5,4,6)              109.4712         estimate D2E/DX2                !
 ! A11   A(5,4,7)              109.4713         estimate D2E/DX2                !
 ! A12   A(6,4,7)              109.4712         estimate D2E/DX2                !
 ! A13   A(4,7,8)              109.4712         estimate D2E/DX2                !
 ! A14   A(4,7,9)              109.4712         estimate D2E/DX2                !
 ! A15   A(4,7,14)             109.4712         estimate D2E/DX2                !
 ! A16   A(8,7,9)              109.4712         estimate D2E/DX2                !
 ! A17   A(8,7,14)             109.4713         estimate D2E/DX2                !
 ! A18   A(9,7,14)             109.4712         estimate D2E/DX2                !
 ! A19   A(1,10,11)            109.4712         estimate D2E/DX2                !
 ! A20   A(1,10,12)            109.4712         estimate D2E/DX2                !
 ! A21   A(1,10,13)            109.4712         estimate D2E/DX2                !
 ! A22   A(11,10,12)           109.4713         estimate D2E/DX2                !
 ! A23   A(11,10,13)           109.4712         estimate D2E/DX2                !
 ! A24   A(12,10,13)           109.4712         estimate D2E/DX2                !
 ! A25   A(7,14,15)            109.4712         estimate D2E/DX2                !
 ! A26   A(7,14,16)            109.4712         estimate D2E/DX2                !
 ! A27   A(7,14,17)            109.4712         estimate D2E/DX2                !
 ! A28   A(15,14,16)           109.4713         estimate D2E/DX2                !
 ! A29   A(15,14,17)           109.4712         estimate D2E/DX2                !
 ! A30   A(16,14,17)           109.4712         estimate D2E/DX2                !
 ! D1    D(2,1,4,5)             59.8889         estimate D2E/DX2                !
 ! D2    D(2,1,4,6)            -60.1111         estimate D2E/DX2                !
 ! D3    D(2,1,4,7)            179.8889         estimate D2E/DX2                !
 ! D4    D(3,1,4,5)            -60.1111         estimate D2E/DX2                !
 ! D5    D(3,1,4,6)            179.8889         estimate D2E/DX2                !
 ! D6    D(3,1,4,7)             59.8889         estimate D2E/DX2                !
 ! D7    D(10,1,4,5)           179.8889         estimate D2E/DX2                !
 ! D8    D(10,1,4,6)            59.8889         estimate D2E/DX2                !
 ! D9    D(10,1,4,7)           -60.1111         estimate D2E/DX2                !
 ! D10   D(2,1,10,11)         -155.3411         estimate D2E/DX2                !
 ! D11   D(2,1,10,12)          -35.3411         estimate D2E/DX2                !
 ! D12   D(2,1,10,13)           84.6589         estimate D2E/DX2                !
 ! D13   D(3,1,10,11)          -35.3411         estimate D2E/DX2                !
 ! D14   D(3,1,10,12)           84.6589         estimate D2E/DX2                !
 ! D15   D(3,1,10,13)         -155.3411         estimate D2E/DX2                !
 ! D16   D(4,1,10,11)           84.6589         estimate D2E/DX2                !
 ! D17   D(4,1,10,12)         -155.3411         estimate D2E/DX2                !
 ! D18   D(4,1,10,13)          -35.3411         estimate D2E/DX2                !
 ! D19   D(1,4,7,8)            179.9786         estimate D2E/DX2                !
 ! D20   D(1,4,7,9)            -60.0214         estimate D2E/DX2                !
 ! D21   D(1,4,7,14)            59.9786         estimate D2E/DX2                !
 ! D22   D(5,4,7,8)            -60.0214         estimate D2E/DX2                !
 ! D23   D(5,4,7,9)             59.9786         estimate D2E/DX2                !
 ! D24   D(5,4,7,14)           179.9786         estimate D2E/DX2                !
 ! D25   D(6,4,7,8)             59.9786         estimate D2E/DX2                !
 ! D26   D(6,4,7,9)            179.9786         estimate D2E/DX2                !
 ! D27   D(6,4,7,14)           -60.0214         estimate D2E/DX2                !
 ! D28   D(4,7,14,15)          -90.0685         estimate D2E/DX2                !
 ! D29   D(4,7,14,16)           29.9316         estimate D2E/DX2                !
 ! D30   D(4,7,14,17)          149.9316         estimate D2E/DX2                !
 ! D31   D(8,7,14,15)          149.9316         estimate D2E/DX2                !
 ! D32   D(8,7,14,16)          -90.0684         estimate D2E/DX2                !
 ! D33   D(8,7,14,17)           29.9316         estimate D2E/DX2                !
 ! D34   D(9,7,14,15)           29.9315         estimate D2E/DX2                !
 ! D35   D(9,7,14,16)          149.9316         estimate D2E/DX2                !
 ! D36   D(9,7,14,17)          -90.0684         estimate D2E/DX2                !
 --------------------------------------------------------------------------------
 Trust Radius=3.00D-01 FncErr=1.00D-07 GrdErr=1.00D-07 EigMax=2.50D+02 EigMin=1.00D-04
 Number of steps in this run=     92 maximum allowed number of steps=    102.
 GradGradGradGradGradGradGradGradGradGradGradGradGradGradGradGradGradGrad

 Leave Link  103 at Fri Nov  3 15:08:04 2017, MaxMem=   134217728 cpu:               0.0 elap:               0.1
 (Enter /n/sw/g16_nehalem/g16/l202.exe)
                          Input orientation:                          
 ---------------------------------------------------------------------
 Center     Atomic      Atomic             Coordinates (Angstroms)
 Number     Number       Type             X           Y           Z
 ---------------------------------------------------------------------
      1          6           0       -5.838710    0.935484    0.000000
      2          1           0       -5.482055   -0.073326    0.000000
      3          1           0       -5.482037    1.439882   -0.873652
      4          6           0       -5.325368    1.661440    1.257405
      5          1           0       -4.255369    1.659733    1.258383
      6          1           0       -5.683636    1.158172    2.131055
      7          6           0       -5.836384    3.114183    1.255998
      8          1           0       -5.480018    3.618473    2.129838
      9          1           0       -5.477808    3.617559    0.382536
     10          6           0       -7.378710    0.935503    0.000000
     11          1           0       -7.735365    1.852318   -0.420889
     12          1           0       -7.735386    0.112601   -0.583536
     13          1           0       -7.735378    0.841603    1.004426
     14          6           0       -7.376380    3.116638    1.254048
     15          1           0       -7.731767    3.117884    0.244792
     16          1           0       -7.735077    2.243218    1.757411
     17          1           0       -7.732294    3.990518    1.758587
 ---------------------------------------------------------------------
                    Distance matrix (angstroms):
                    1          2          3          4          5
     1  C    0.000000
     2  H    1.070000   0.000000
     3  H    1.070000   1.747302   0.000000
     4  C    1.540000   2.148263   2.148263   0.000000
     5  H    2.148263   2.468153   2.469538   1.070000   0.000000
     6  H    2.148263   2.469538   3.024610   1.070000   1.747303
     7  C    2.514809   3.444313   2.732078   1.540000   2.148263
     8  H    3.444314   4.262111   3.710419   2.148263   2.468979
     9  H    2.733151   3.710658   2.514021   2.148263   2.468713
    10  C    1.540000   2.148263   2.148263   2.514809   3.444313
    11  H    2.148263   2.993769   2.335077   2.942990   3.868774
    12  H    2.148263   2.335077   2.631240   3.405313   4.230461
    13  H    2.148263   2.631241   2.993770   2.558179   3.583893
    14  C    2.948644   3.916245   3.305624   2.514809   3.444314
    15  H    2.899390   3.912154   3.021240   2.989544   3.903705
    16  H    2.897390   3.678448   3.555844   2.528868   3.563404
    17  H    4.001440   4.966994   4.300939   3.386603   4.215657
                    6          7          8          9         10
     6  H    0.000000
     7  C    2.148263   0.000000
     8  H    2.468713   1.070000   0.000000
     9  H    3.024610   1.070000   1.747303   0.000000
    10  C    2.732078   2.950076   3.916576   3.309560   0.000000
    11  H    3.347215   2.830262   3.835635   2.976262   1.070000
    12  H    3.559762   3.999949   4.973954   4.279566   1.070000
    13  H    2.362023   2.972219   3.750228   3.631708   1.070000
    14  C    2.733150   1.540000   2.148263   2.148263   2.515948
    15  H    3.404894   2.148263   2.978987   2.312787   2.224266
    16  H    2.350605   2.148263   2.667456   2.978986   2.219371
    17  H    3.515382   2.148263   2.312788   2.667456   3.542706
                   11         12         13         14         15
    11  H    0.000000
    12  H    1.747303   0.000000
    13  H    1.747303   1.747303   0.000000
    14  C    2.129035   3.539751   2.316673   0.000000
    15  H    1.429966   3.117349   2.399690   1.070000   0.000000
    16  H    2.213096   3.165369   1.591072   1.070000   1.747303
    17  H    3.053199   4.530319   3.237968   1.070000   1.747303
                   16         17
    16  H    0.000000
    17  H    1.747303   0.000000
 Stoichiometry    C5H12
 Framework group  C1[X(C5H12)]
 Deg. of freedom    45
 Full point group                 C1      NOp   1
 Largest Abelian subgroup         C1      NOp   1
 Largest concise Abelian subgroup C1      NOp   1
                         Standard orientation:                         
 ---------------------------------------------------------------------
 Center     Atomic      Atomic             Coordinates (Angstroms)
 Number     Number       Type             X           Y           Z
 ---------------------------------------------------------------------
      1          6           0        1.256645   -0.522468    0.251720
      2          1           0        2.130352   -0.976624   -0.166941
      3          1           0        1.254930   -0.663253    1.312417
      4          6           0       -0.000674   -1.173041   -0.354499
      5          1           0       -0.001295   -2.220353   -0.135326
      6          1           0        0.000064   -1.030576   -1.414972
      7          6           0       -1.258163   -0.521311    0.250124
      8          1           0       -2.131755   -0.973077   -0.171356
      9          1           0       -1.259090   -0.664099    1.310553
     10          6           0        1.258948    0.984376   -0.066110
     11          1           0        0.674981    1.503912    0.664620
     12          1           0        2.263795    1.351517   -0.046376
     13          1           0        0.839667    1.144662   -1.037404
     14          6           0       -1.256999    0.986131   -0.064863
     15          1           0       -0.753940    1.513769    0.718355
     16          1           0       -0.750715    1.156379   -0.992005
     17          1           0       -2.265533    1.335623   -0.139794
 ---------------------------------------------------------------------
 Rotational constants (GHZ):           6.4957765           4.4859408           3.0268051
 Leave Link  202 at Fri Nov  3 15:08:04 2017, MaxMem=   134217728 cpu:               0.0 elap:               0.1
 (Enter /n/sw/g16_nehalem/g16/l301.exe)
 Standard basis: VSTO-6G (5D, 7F)
 Ernie: Thresh=  0.10000D-02 Tol=  0.10000D-05 Strict=F.
  NNHCO=     0 NNPyr=     0 NCTC=     0               EPep=         0.000000000
    EC=        97.872442038  ECS=         1.952351315   EG=         0.576929557
   EHC=         0.000000000  EAt=       -26.628119222  AtH=         2.358010613
 EPDDG=         0.005744028  ECC=       100.407466938 EAtT=        28.986129834
 There are    32 symmetry adapted cartesian basis functions of A   symmetry.
 There are    32 symmetry adapted basis functions of A   symmetry.
    32 basis functions,   192 primitive gaussians,    32 cartesian basis functions
    16 alpha electrons       16 beta electrons
       nuclear repulsion energy       129.3935967728 Hartrees.
 IExCor=    0 DFT=F Ex=HF Corr=None ExCW=0 ScaHFX=  1.000000
 ScaDFX=  1.000000  1.000000  1.000000  1.000000 ScalE2=  1.000000  1.000000
 IRadAn=      5 IRanWt=     -1 IRanGd=            0 ICorTp=0 IEmpDi=  4
 Integral buffers will be    131072 words long.
 Regular integral format.
 Two-electron integral symmetry is turned off.
 Leave Link  301 at Fri Nov  3 15:08:05 2017, MaxMem=   134217728 cpu:               0.1 elap:               0.1
 (Enter /n/sw/g16_nehalem/g16/l302.exe)
 Do NDO integrals.
 NPDir=0 NMtPBC=     1 NCelOv=     1 NCel=       1 NClECP=     1 NCelD=      1
         NCelK=      1 NCelE2=     1 NClLst=     1 CellRange=     0.0.
 One-electron integrals computed using PRISM.
 NBasis=    32 RedAO= F EigKep=  0.00D+00  NBF=    32
 NBsUse=    32 1.00D-04 EigRej=  0.00D+00 NBFU=    32
 Leave Link  302 at Fri Nov  3 15:08:05 2017, MaxMem=   134217728 cpu:               0.1 elap:               0.2
 (Enter /n/sw/g16_nehalem/g16/l303.exe)
 DipDrv:  MaxL=1.
 Leave Link  303 at Fri Nov  3 15:08:05 2017, MaxMem=   134217728 cpu:               0.1 elap:               0.1
 (Enter /n/sw/g16_nehalem/g16/l401.exe)
 Simple Huckel Guess.
 JPrj=0 DoOrth=F DoCkMO=F.
 Leave Link  401 at Fri Nov  3 15:08:06 2017, MaxMem=   134217728 cpu:               0.1 elap:               0.2
 (Enter /n/sw/g16_nehalem/g16/l502.exe)
 Keep J ints in memory in canonical form, NReq=861453.
 FoFCou: FMM=F IPFlag=           0 FMFlag=           0 FMFlg1=           0
         NFxFlg=           0 DoJE=F BraDBF=F KetDBF=F FulRan=T
         wScrn=  0.000000 ICntrl=       600 IOpCl=  2 I1Cent=           0 NGrid=           0
         NMat0=    1 NMatS0=     62 NMatT0=    0 NMatD0=    1 NMtDS0=    0 NMtDT0=    0
 Symmetry not used in FoFCou.
 Two-electron integral symmetry not used.
 Closed shell SCF:
 Using DIIS extrapolation, IDIIS=  1040.
 Overlap will be assumed to be unity.
 NGot=   134217728 LenX=   134153800 LenY=   134152335
 Requested convergence on RMS density matrix=1.00D-08 within 128 cycles.
 Requested convergence on MAX density matrix=1.00D-06.
 Requested convergence on             energy=1.00D-06.
 No special actions if energy rises.

 Cycle   1  Pass 1  IDiag  1:
 E= 0.165103630754942    
 DIIS: error= 3.20D-02 at cycle   1 NSaved=   1.
 NSaved= 1 IEnMin= 1 EnMin= 0.165103630754942     IErMin= 1 ErrMin= 3.20D-02
 ErrMax= 3.20D-02  0.00D+00 EMaxC= 1.00D-01 BMatC= 7.05D-02 BMatP= 7.05D-02
 IDIUse=3 WtCom= 6.80D-01 WtEn= 3.20D-01
 Coeff-Com:  0.100D+01
 Coeff-En:   0.100D+01
 Coeff:      0.100D+01
 GapD=    2.000 DampG=2.000 DampE=0.500 DampFc=1.0000 IDamp=-1.
 RMSDP=1.09D-02 MaxDP=1.02D-01              OVMax= 0.00D+00

 Cycle   2  Pass 1  IDiag  1:
 E= 0.470305436593321E-02 Delta-E=       -0.160400576389 Rises=F Damp=F
 DIIS: error= 8.35D-03 at cycle   2 NSaved=   2.
 NSaved= 2 IEnMin= 2 EnMin= 0.470305436593321E-02 IErMin= 2 ErrMin= 8.35D-03
 ErrMax= 8.35D-03  0.00D+00 EMaxC= 1.00D-01 BMatC= 4.47D-03 BMatP= 7.05D-02
 IDIUse=3 WtCom= 9.16D-01 WtEn= 8.35D-02
 Coeff-Com: -0.318D+00 0.132D+01
 Coeff-En:   0.000D+00 0.100D+01
 Coeff:     -0.291D+00 0.129D+01
 RMSDP=3.78D-03 MaxDP=3.37D-02 DE=-1.60D-01 OVMax= 0.00D+00

 Cycle   3  Pass 1  IDiag  3:
 E=-0.723595823106393E-02 Delta-E=       -0.011939012597 Rises=F Damp=F
 DIIS: error= 7.15D-04 at cycle   3 NSaved=   3.
 NSaved= 3 IEnMin= 3 EnMin=-0.723595823106393E-02 IErMin= 3 ErrMin= 7.15D-04
 ErrMax= 7.15D-04  0.00D+00 EMaxC= 1.00D-01 BMatC= 5.01D-05 BMatP= 4.47D-03
 IDIUse=3 WtCom= 9.93D-01 WtEn= 7.15D-03
 Coeff-Com:  0.110D+00-0.512D+00 0.140D+01
 Coeff-En:   0.000D+00 0.000D+00 0.100D+01
 Coeff:      0.109D+00-0.508D+00 0.140D+01
 Gap=     0.530 Goal=   None    Shift=    0.000
 RMSDP=6.04D-04 MaxDP=3.26D-03 DE=-1.19D-02 OVMax= 3.98D-03

 Cycle   4  Pass 1  IDiag  3:
 E=-0.746192752279740E-02 Delta-E=       -0.000225969292 Rises=F Damp=F
 DIIS: error= 2.09D-04 at cycle   4 NSaved=   4.
 NSaved= 4 IEnMin= 4 EnMin=-0.746192752279740E-02 IErMin= 4 ErrMin= 2.09D-04
 ErrMax= 2.09D-04  0.00D+00 EMaxC= 1.00D-01 BMatC= 3.05D-06 BMatP= 5.01D-05
 IDIUse=3 WtCom= 9.98D-01 WtEn= 2.09D-03
 Coeff-Com: -0.666D-01 0.315D+00-0.102D+01 0.177D+01
 Coeff-En:   0.000D+00 0.000D+00 0.000D+00 0.100D+01
 Coeff:     -0.664D-01 0.314D+00-0.101D+01 0.177D+01
 Gap=     0.531 Goal=   None    Shift=    0.000
 RMSDP=2.27D-04 MaxDP=1.46D-03 DE=-2.26D-04 OVMax= 1.53D-03

 Cycle   5  Pass 1  IDiag  3:
 E=-0.748105123534515E-02 Delta-E=       -0.000019123713 Rises=F Damp=F
 DIIS: error= 3.46D-05 at cycle   5 NSaved=   5.
 NSaved= 5 IEnMin= 5 EnMin=-0.748105123534515E-02 IErMin= 5 ErrMin= 3.46D-05
 ErrMax= 3.46D-05  0.00D+00 EMaxC= 1.00D-01 BMatC= 5.93D-08 BMatP= 3.05D-06
 IDIUse=1 WtCom= 1.00D+00 WtEn= 0.00D+00
 Coeff-Com:  0.113D-01-0.534D-01 0.176D+00-0.370D+00 0.124D+01
 Coeff:      0.113D-01-0.534D-01 0.176D+00-0.370D+00 0.124D+01
 Gap=     0.531 Goal=   None    Shift=    0.000
 RMSDP=2.33D-05 MaxDP=1.98D-04 DE=-1.91D-05 OVMax= 1.56D-04

 Cycle   6  Pass 1  IDiag  3:
 E=-0.748135665531890E-02 Delta-E=       -0.000000305420 Rises=F Damp=F
 DIIS: error= 1.13D-05 at cycle   6 NSaved=   6.
 NSaved= 6 IEnMin= 6 EnMin=-0.748135665531890E-02 IErMin= 6 ErrMin= 1.13D-05
 ErrMax= 1.13D-05  0.00D+00 EMaxC= 1.00D-01 BMatC= 6.01D-09 BMatP= 5.93D-08
 IDIUse=1 WtCom= 1.00D+00 WtEn= 0.00D+00
 Coeff-Com: -0.297D-02 0.138D-01-0.436D-01 0.916D-01-0.526D+00 0.147D+01
 Coeff:     -0.297D-02 0.138D-01-0.436D-01 0.916D-01-0.526D+00 0.147D+01
 Gap=     0.531 Goal=   None    Shift=    0.000
 RMSDP=8.62D-06 MaxDP=7.24D-05 DE=-3.05D-07 OVMax= 5.94D-05

 Cycle   7  Pass 1  IDiag  3:
 E=-0.748139310596230E-02 Delta-E=       -0.000000036451 Rises=F Damp=F
 DIIS: error= 4.07D-06 at cycle   7 NSaved=   7.
 NSaved= 7 IEnMin= 7 EnMin=-0.748139310596230E-02 IErMin= 7 ErrMin= 4.07D-06
 ErrMax= 4.07D-06  0.00D+00 EMaxC= 1.00D-01 BMatC= 6.18D-10 BMatP= 6.01D-09
 IDIUse=1 WtCom= 1.00D+00 WtEn= 0.00D+00
 Coeff-Com:  0.886D-03-0.401D-02 0.118D-01-0.237D-01 0.245D+00-0.999D+00
 Coeff-Com:  0.177D+01
 Coeff:      0.886D-03-0.401D-02 0.118D-01-0.237D-01 0.245D+00-0.999D+00
 Coeff:      0.177D+01
 Gap=     0.531 Goal=   None    Shift=    0.000
 RMSDP=3.50D-06 MaxDP=2.90D-05 DE=-3.65D-08 OVMax= 2.30D-05

 Cycle   8  Pass 1  IDiag  3:
 E=-0.748139737453357E-02 Delta-E=       -0.000000004269 Rises=F Damp=F
 DIIS: error= 5.68D-07 at cycle   8 NSaved=   8.
 NSaved= 8 IEnMin= 8 EnMin=-0.748139737453357E-02 IErMin= 8 ErrMin= 5.68D-07
 ErrMax= 5.68D-07  0.00D+00 EMaxC= 1.00D-01 BMatC= 2.06D-11 BMatP= 6.18D-10
 IDIUse=1 WtCom= 1.00D+00 WtEn= 0.00D+00
 Coeff-Com: -0.202D-04 0.408D-04 0.283D-03-0.127D-02-0.470D-01 0.265D+00
 Coeff-Com: -0.629D+00 0.141D+01
 Coeff:     -0.202D-04 0.408D-04 0.283D-03-0.127D-02-0.470D-01 0.265D+00
 Coeff:     -0.629D+00 0.141D+01
 Gap=     0.531 Goal=   None    Shift=    0.000
 RMSDP=5.47D-07 MaxDP=4.42D-06 DE=-4.27D-09 OVMax= 3.35D-06

 Cycle   9  Pass 1  IDiag  3:
 E=-0.748139749305210E-02 Delta-E=       -0.000000000119 Rises=F Damp=F
 DIIS: error= 1.80D-07 at cycle   9 NSaved=   9.
 NSaved= 9 IEnMin= 9 EnMin=-0.748139749305210E-02 IErMin= 9 ErrMin= 1.80D-07
 ErrMax= 1.80D-07  0.00D+00 EMaxC= 1.00D-01 BMatC= 9.54D-13 BMatP= 2.06D-11
 IDIUse=1 WtCom= 1.00D+00 WtEn= 0.00D+00
 Coeff-Com: -0.679D-05 0.549D-04-0.356D-03 0.111D-02 0.167D-01-0.103D+00
 Coeff-Com:  0.258D+00-0.701D+00 0.153D+01
 Coeff:     -0.679D-05 0.549D-04-0.356D-03 0.111D-02 0.167D-01-0.103D+00
 Coeff:      0.258D+00-0.701D+00 0.153D+01
 Gap=     0.531 Goal=   None    Shift=    0.000
 RMSDP=1.10D-07 MaxDP=1.05D-06 DE=-1.19D-10 OVMax= 7.09D-07

 Cycle  10  Pass 1  IDiag  3:
 E=-0.748139749885013E-02 Delta-E=       -0.000000000006 Rises=F Damp=F
 DIIS: error= 6.37D-08 at cycle  10 NSaved=  10.
 NSaved=10 IEnMin=10 EnMin=-0.748139749885013E-02 IErMin=10 ErrMin= 6.37D-08
 ErrMax= 6.37D-08  0.00D+00 EMaxC= 1.00D-01 BMatC= 7.63D-14 BMatP= 9.54D-13
 IDIUse=1 WtCom= 1.00D+00 WtEn= 0.00D+00
 Coeff-Com:  0.149D-05-0.193D-04 0.159D-03-0.542D-03-0.890D-02 0.543D-01
 Coeff-Com: -0.137D+00 0.383D+00-0.103D+01 0.174D+01
 Coeff:      0.149D-05-0.193D-04 0.159D-03-0.542D-03-0.890D-02 0.543D-01
 Coeff:     -0.137D+00 0.383D+00-0.103D+01 0.174D+01
 Gap=     0.531 Goal=   None    Shift=    0.000
 RMSDP=3.79D-08 MaxDP=4.26D-07 DE=-5.80D-12 OVMax= 2.04D-07

 Cycle  11  Pass 1  IDiag  3:
 E=-0.748139749882171E-02 Delta-E=        0.000000000000 Rises=F Damp=F
 DIIS: error= 7.91D-09 at cycle  11 NSaved=  11.
 NSaved=11 IEnMin=10 EnMin=-0.748139749885013E-02 IErMin=11 ErrMin= 7.91D-09
 ErrMax= 7.91D-09  0.00D+00 EMaxC= 1.00D-01 BMatC= 1.62D-15 BMatP= 7.63D-14
 IDIUse=1 WtCom= 1.00D+00 WtEn= 0.00D+00
 Coeff-Com: -0.565D-06 0.704D-05-0.571D-04 0.193D-03 0.315D-02-0.192D-01
 Coeff-Com:  0.486D-01-0.136D+00 0.378D+00-0.728D+00 0.145D+01
 Coeff:     -0.565D-06 0.704D-05-0.571D-04 0.193D-03 0.315D-02-0.192D-01
 Coeff:      0.486D-01-0.136D+00 0.378D+00-0.728D+00 0.145D+01
 Gap=     0.531 Goal=   None    Shift=    0.000
 RMSDP=4.73D-09 MaxDP=4.99D-08 DE= 2.84D-14 OVMax= 2.75D-08

 Cycle  12  Pass 2  IDiag  1:
 SCF Done:  E(RPDDG) = -0.748139749882E-02 A.U. after   12 cycles
            NFock= 11  Conv=0.47D-08     -V/T= 0.9998
 KE=-4.269241990956D+01 PE=-1.945680818703D+02 EE= 1.078594236096D+02
 Leave Link  502 at Fri Nov  3 15:08:06 2017, MaxMem=   134217728 cpu:               0.1 elap:               0.2
 (Enter /n/sw/g16_nehalem/g16/l601.exe)
 Copying SCF densities to generalized density rwf, IOpCl= 0 IROHF=0.

 **********************************************************************

            Population analysis using the SCF density.

 **********************************************************************

 Orbital symmetries:
       Occupied  (A) (A) (A) (A) (A) (A) (A) (A) (A) (A) (A) (A)
                 (A) (A) (A) (A)
       Virtual   (A) (A) (A) (A) (A) (A) (A) (A) (A) (A) (A) (A)
                 (A) (A) (A) (A)
 The electronic state is 1-A.
 Alpha  occ. eigenvalues --   -1.52048  -1.15513  -1.06884  -0.80929  -0.77275
 Alpha  occ. eigenvalues --   -0.62719  -0.59194  -0.54138  -0.52151  -0.49810
 Alpha  occ. eigenvalues --   -0.49338  -0.47954  -0.43852  -0.43020  -0.42272
 Alpha  occ. eigenvalues --   -0.39986
 Alpha virt. eigenvalues --    0.13074   0.13636   0.13968   0.15661   0.15851
 Alpha virt. eigenvalues --    0.16445   0.16519   0.16929   0.17860   0.18410
 Alpha virt. eigenvalues --    0.18516   0.18874   0.19893   0.20220   0.20683
 Alpha virt. eigenvalues --    0.21045
          Condensed to atoms (all electrons):
               1          2          3          4          5          6
     1  C    4.181302   0.000000   0.000000   0.000000   0.000000   0.000000
     2  H    0.000000   0.907192   0.000000   0.000000   0.000000   0.000000
     3  H    0.000000   0.000000   0.904700   0.000000   0.000000   0.000000
     4  C    0.000000   0.000000   0.000000   4.196956   0.000000   0.000000
     5  H    0.000000   0.000000   0.000000   0.000000   0.905075   0.000000
     6  H    0.000000   0.000000   0.000000   0.000000   0.000000   0.901242
     7  C    0.000000   0.000000   0.000000   0.000000   0.000000   0.000000
     8  H    0.000000   0.000000   0.000000   0.000000   0.000000   0.000000
     9  H    0.000000   0.000000   0.000000   0.000000   0.000000   0.000000
    10  C    0.000000   0.000000   0.000000   0.000000   0.000000   0.000000
    11  H    0.000000   0.000000   0.000000   0.000000   0.000000   0.000000
    12  H    0.000000   0.000000   0.000000   0.000000   0.000000   0.000000
    13  H    0.000000   0.000000   0.000000   0.000000   0.000000   0.000000
    14  C    0.000000   0.000000   0.000000   0.000000   0.000000   0.000000
    15  H    0.000000   0.000000   0.000000   0.000000   0.000000   0.000000
    16  H    0.000000   0.000000   0.000000   0.000000   0.000000   0.000000
    17  H    0.000000   0.000000   0.000000   0.000000   0.000000   0.000000
               7          8          9         10         11         12
     1  C    0.000000   0.000000   0.000000   0.000000   0.000000   0.000000
     2  H    0.000000   0.000000   0.000000   0.000000   0.000000   0.000000
     3  H    0.000000   0.000000   0.000000   0.000000   0.000000   0.000000
     4  C    0.000000   0.000000   0.000000   0.000000   0.000000   0.000000
     5  H    0.000000   0.000000   0.000000   0.000000   0.000000   0.000000
     6  H    0.000000   0.000000   0.000000   0.000000   0.000000   0.000000
     7  C    4.181588   0.000000   0.000000   0.000000   0.000000   0.000000
     8  H    0.000000   0.907009   0.000000   0.000000   0.000000   0.000000
     9  H    0.000000   0.000000   0.904765   0.000000   0.000000   0.000000
    10  C    0.000000   0.000000   0.000000   4.321631   0.000000   0.000000
    11  H    0.000000   0.000000   0.000000   0.000000   0.880873   0.000000
    12  H    0.000000   0.000000   0.000000   0.000000   0.000000   0.914250
    13  H    0.000000   0.000000   0.000000   0.000000   0.000000   0.000000
    14  C    0.000000   0.000000   0.000000   0.000000   0.000000   0.000000
    15  H    0.000000   0.000000   0.000000   0.000000   0.000000   0.000000
    16  H    0.000000   0.000000   0.000000   0.000000   0.000000   0.000000
    17  H    0.000000   0.000000   0.000000   0.000000   0.000000   0.000000
              13         14         15         16         17
     1  C    0.000000   0.000000   0.000000   0.000000   0.000000
     2  H    0.000000   0.000000   0.000000   0.000000   0.000000
     3  H    0.000000   0.000000   0.000000   0.000000   0.000000
     4  C    0.000000   0.000000   0.000000   0.000000   0.000000
     5  H    0.000000   0.000000   0.000000   0.000000   0.000000
     6  H    0.000000   0.000000   0.000000   0.000000   0.000000
     7  C    0.000000   0.000000   0.000000   0.000000   0.000000
     8  H    0.000000   0.000000   0.000000   0.000000   0.000000
     9  H    0.000000   0.000000   0.000000   0.000000   0.000000
    10  C    0.000000   0.000000   0.000000   0.000000   0.000000
    11  H    0.000000   0.000000   0.000000   0.000000   0.000000
    12  H    0.000000   0.000000   0.000000   0.000000   0.000000
    13  H    0.889039   0.000000   0.000000   0.000000   0.000000
    14  C    0.000000   4.319651   0.000000   0.000000   0.000000
    15  H    0.000000   0.000000   0.886508   0.000000   0.000000
    16  H    0.000000   0.000000   0.000000   0.883818   0.000000
    17  H    0.000000   0.000000   0.000000   0.000000   0.914401
 Mulliken charges:
               1
     1  C   -0.181302
     2  H    0.092808
     3  H    0.095300
     4  C   -0.196956
     5  H    0.094925
     6  H    0.098758
     7  C   -0.181588
     8  H    0.092991
     9  H    0.095235
    10  C   -0.321631
    11  H    0.119127
    12  H    0.085750
    13  H    0.110961
    14  C   -0.319651
    15  H    0.113492
    16  H    0.116182
    17  H    0.085599
 Sum of Mulliken charges =   0.00000
 Mulliken charges with hydrogens summed into heavy atoms:
               1
     1  C    0.006806
     4  C   -0.003273
     7  C    0.006638
    10  C   -0.005793
    14  C   -0.004378
 Charge=              0.0000 electrons
 Dipole moment (field-independent basis, Debye):
    X=             -0.0078    Y=              0.0599    Z=             -0.0029  Tot=              0.0604
 N-N= 1.293935967728D+02 E-N=-1.945680819376D+02  KE=-4.269241990956D+01
 Leave Link  601 at Fri Nov  3 15:08:06 2017, MaxMem=   134217728 cpu:               0.1 elap:               0.2
 (Enter /n/sw/g16_nehalem/g16/l701.exe)
 ... and contract with generalized density number  0.
 Compute integral first derivatives.
 Leave Link  701 at Fri Nov  3 15:08:07 2017, MaxMem=   134217728 cpu:               0.1 elap:               0.2
 (Enter /n/sw/g16_nehalem/g16/l702.exe)
 L702 exits ... SP integral derivatives will be done elsewhere.
 Leave Link  702 at Fri Nov  3 15:08:07 2017, MaxMem=   134217728 cpu:               0.0 elap:               0.1
 (Enter /n/sw/g16_nehalem/g16/l703.exe)
 Integral derivatives from FoFJK, PRISM(SPDF).
 Compute integral first derivatives, UseDBF=F ICtDFT=           0.
 Calling FoFJK, ICntrl=      2127 FMM=F ISym2X=0 I1Cent= 0 IOpClX= 0 NMat=1 NMatS=1 NMatT=0.
 FoFJK:  IHMeth=41 ICntrl=    2127 DoSepK=F KAlg= 0 I1Cent=           0 FoldK=F
 IRaf=         0 NMat=       1 IRICut=       1 DoRegI=T DoRafI=F ISym2E= 0 IDoP0=3 IntGTp=3.
 FoFCou: FMM=F IPFlag=           0 FMFlag=      100000 FMFlg1=         800
         NFxFlg=           0 DoJE=F BraDBF=F KetDBF=F FulRan=T
         wScrn=  0.000000 ICntrl=      2127 IOpCl=  0 I1Cent=           0 NGrid=           0
         NMat0=    1 NMatS0=      1 NMatT0=    0 NMatD0=    1 NMtDS0=    0 NMtDT0=    0
 Symmetry not used in FoFCou.
 Leave Link  703 at Fri Nov  3 15:08:07 2017, MaxMem=   134217728 cpu:               0.1 elap:               0.1
 (Enter /n/sw/g16_nehalem/g16/l716.exe)
 Dipole        =-3.06034181D-03 2.35470921D-02-1.14222065D-03
 ***** Axes restored to original set *****
 -------------------------------------------------------------------
 Center     Atomic                   Forces (Hartrees/Bohr)
 Number     Number              X              Y              Z
 -------------------------------------------------------------------
      1        6          -0.022892456    0.015440877    0.029010881
      2        1           0.010542854   -0.021280670   -0.001573242
      3        1           0.010362625    0.008320116   -0.020854904
      4        6          -0.020086467    0.018076288   -0.031425116
      5        1           0.023186393   -0.001327906    0.002256000
      6        1          -0.004345049   -0.012643715    0.021857364
      7        6          -0.022522225   -0.032772299    0.001172076
      8        1           0.010948679    0.011948129    0.017642202
      9        1           0.010865672    0.013875983   -0.017580268
     10        6           0.039842055   -0.039947965   -0.022525261
     11        1          -0.013750983    0.000781919   -0.024307419
     12        1          -0.008825359   -0.011920447   -0.008929608
     13        1          -0.014281824   -0.015454976    0.014643365
     14        6           0.039402672    0.038203504    0.022990996
     15        1          -0.013720322    0.020119662   -0.012366548
     16        1          -0.015430274   -0.004639965    0.023168760
     17        1          -0.009295989    0.013221465    0.006820723
 -------------------------------------------------------------------
 Cartesian Forces:  Max     0.039947965 RMS     0.019451295
 Leave Link  716 at Fri Nov  3 15:08:07 2017, MaxMem=   134217728 cpu:               0.0 elap:               0.1
 (Enter /n/sw/g16_nehalem/g16/l103.exe)

 GradGradGradGradGradGradGradGradGradGradGradGradGradGradGradGradGradGrad
 Berny optimization.
 FormGI is forming the generalized inverse of G from B-inverse, IUseBI=4.
 Internal  Forces:  Max     0.202478572 RMS     0.043621694
 Search for a local minimum.
 Step number   1 out of a maximum of   92
 All quantities printed in internal units (Hartrees-Bohrs-Radians)
 RMS Force = .43622D-01 SwitMx=.10000D-02 MixMth= 1
 Mixed Optimization -- RFO/linear search
 Second derivative matrix not updated -- first step.
 ITU=  0
     Eigenvalues ---    0.00237   0.00237   0.00237   0.00237   0.03840
     Eigenvalues ---    0.03840   0.03840   0.04896   0.04896   0.04896
     Eigenvalues ---    0.05720   0.05720   0.05720   0.05720   0.07655
     Eigenvalues ---    0.07655   0.07655   0.11701   0.11701   0.11701
     Eigenvalues ---    0.16000   0.16000   0.16000   0.16000   0.16000
     Eigenvalues ---    0.16000   0.21948   0.21948   0.21948   0.28519
     Eigenvalues ---    0.28519   0.28519   0.28519   0.37230   0.37230
     Eigenvalues ---    0.37230   0.37230   0.37230   0.37230   0.37230
     Eigenvalues ---    0.37230   0.37230   0.37230   0.37230   0.37230
 RFO step:  Lambda=-3.09162219D-01 EMin= 2.36824185D-03
 Linear search not attempted -- first point.
 Maximum step size (   0.300) exceeded in Quadratic search.
    -- Step size scaled by   0.427
 Iteration  1 RMS(Cart)=  0.24973911 RMS(Int)=  0.01151225
 Iteration  2 RMS(Cart)=  0.03245595 RMS(Int)=  0.00090936
 Iteration  3 RMS(Cart)=  0.00059126 RMS(Int)=  0.00088590
 Iteration  4 RMS(Cart)=  0.00000067 RMS(Int)=  0.00088590
 ITry= 1 IFail=0 DXMaxC= 8.65D-01 DCOld= 1.00D+10 DXMaxT= 3.00D-01 DXLimC= 3.00D+00 Rises=F
 Variable       Old X    -DE/DX   Delta X   Delta X   Delta X     New X
                                 (Linear)    (Quad)   (Total)
    R1        2.02201   0.02358   0.00000   0.01476   0.01476   2.03677
    R2        2.02201   0.02440   0.00000   0.01528   0.01528   2.03729
    R3        2.91018   0.05806   0.00000   0.04168   0.04168   2.95186
    R4        2.91018  -0.00298   0.00000  -0.00214  -0.00214   2.90804
    R5        2.02201   0.02319   0.00000   0.01452   0.01452   2.03653
    R6        2.02201   0.02525   0.00000   0.01581   0.01581   2.03781
    R7        2.91018   0.05644   0.00000   0.04051   0.04051   2.95069
    R8        2.02201   0.02369   0.00000   0.01483   0.01483   2.03684
    R9        2.02201   0.02452   0.00000   0.01535   0.01535   2.03736
   R10        2.91018  -0.00090   0.00000  -0.00065  -0.00065   2.90953
   R11        2.02201   0.01481   0.00000   0.00928   0.00928   2.03128
   R12        2.02201   0.01698   0.00000   0.01063   0.01063   2.03264
   R13        2.02201   0.01986   0.00000   0.01244   0.01244   2.03444
   R14        2.02201   0.01624   0.00000   0.01017   0.01017   2.03218
   R15        2.02201   0.01986   0.00000   0.01243   0.01243   2.03444
   R16        2.02201   0.01711   0.00000   0.01071   0.01071   2.03272
    A1        1.91063   0.02329   0.00000   0.01176   0.01001   1.92064
    A2        1.91063  -0.04872   0.00000  -0.04074  -0.03954   1.87109
    A3        1.91063  -0.06047   0.00000  -0.05238  -0.05149   1.85914
    A4        1.91063  -0.04399   0.00000  -0.03201  -0.03339   1.87724
    A5        1.91063  -0.02991   0.00000  -0.01779  -0.01855   1.89209
    A6        1.91063   0.15980   0.00000   0.13115   0.13159   2.04223
    A7        1.91063  -0.07584   0.00000  -0.06691  -0.06450   1.84613
    A8        1.91063  -0.04039   0.00000  -0.02389  -0.02646   1.88417
    A9        1.91063   0.20248   0.00000   0.16613   0.16659   2.07722
   A10        1.91063   0.02994   0.00000   0.01541   0.01269   1.92332
   A11        1.91063  -0.07359   0.00000  -0.06465  -0.06217   1.84847
   A12        1.91063  -0.04259   0.00000  -0.02610  -0.02879   1.88185
   A13        1.91063  -0.04620   0.00000  -0.03855  -0.03731   1.87333
   A14        1.91063  -0.04472   0.00000  -0.03292  -0.03442   1.87621
   A15        1.91063   0.15613   0.00000   0.12816   0.12856   2.03919
   A16        1.91063   0.02260   0.00000   0.01132   0.00967   1.92030
   A17        1.91063  -0.06145   0.00000  -0.05364  -0.05278   1.85786
   A18        1.91063  -0.02635   0.00000  -0.01436  -0.01505   1.89559
   A19        1.91063   0.01309   0.00000   0.01246   0.01237   1.92300
   A20        1.91063  -0.00413   0.00000  -0.00512  -0.00509   1.90554
   A21        1.91063   0.01210   0.00000   0.01181   0.01171   1.92235
   A22        1.91063  -0.01239   0.00000  -0.01289  -0.01286   1.89778
   A23        1.91063   0.00078   0.00000   0.00344   0.00323   1.91387
   A24        1.91063  -0.00944   0.00000  -0.00970  -0.00968   1.90096
   A25        1.91063   0.01241   0.00000   0.01193   0.01183   1.92246
   A26        1.91063   0.01370   0.00000   0.01325   0.01314   1.92378
   A27        1.91063  -0.00388   0.00000  -0.00496  -0.00493   1.90570
   A28        1.91063   0.00099   0.00000   0.00376   0.00354   1.91417
   A29        1.91063  -0.01200   0.00000  -0.01249  -0.01246   1.89817
   A30        1.91063  -0.01122   0.00000  -0.01149  -0.01147   1.89917
    D1        1.04526  -0.02673   0.00000  -0.02968  -0.02838   1.01688
    D2       -1.04914   0.00778   0.00000   0.00705   0.00740  -1.04174
    D3        3.13965  -0.03931   0.00000  -0.04809  -0.04855   3.09110
    D4       -1.04914   0.00152   0.00000   0.00046   0.00102  -1.04812
    D5        3.13965   0.03603   0.00000   0.03719   0.03680  -3.10673
    D6        1.04526  -0.01106   0.00000  -0.01795  -0.01915   1.02611
    D7        3.13965  -0.03277   0.00000  -0.03846  -0.03761   3.10205
    D8        1.04526   0.00175   0.00000  -0.00173  -0.00183   1.04343
    D9       -1.04914  -0.04535   0.00000  -0.05688  -0.05778  -1.10692
   D10       -2.71121   0.01958   0.00000   0.02122   0.02071  -2.69051
   D11       -0.61682   0.00989   0.00000   0.00994   0.00936  -0.60746
   D12        1.47758   0.00320   0.00000   0.00215   0.00151   1.47909
   D13       -0.61682  -0.00725   0.00000  -0.00734  -0.00734  -0.62416
   D14        1.47758  -0.01694   0.00000  -0.01863  -0.01869   1.45889
   D15       -2.71121  -0.02363   0.00000  -0.02641  -0.02653  -2.73775
   D16        1.47758   0.01841   0.00000   0.02288   0.02357   1.50115
   D17       -2.71121   0.00872   0.00000   0.01159   0.01222  -2.69899
   D18       -0.61682   0.00204   0.00000   0.00380   0.00438  -0.61244
   D19        3.14122   0.04120   0.00000   0.05057   0.05094  -3.09103
   D20       -1.04757   0.01319   0.00000   0.02066   0.02177  -1.02580
   D21        1.04682   0.04914   0.00000   0.06139   0.06209   1.10891
   D22       -1.04757   0.02723   0.00000   0.03077   0.02956  -1.01801
   D23        1.04682  -0.00077   0.00000   0.00086   0.00039   1.04722
   D24        3.14122   0.03518   0.00000   0.04159   0.04071  -3.10126
   D25        1.04682  -0.00725   0.00000  -0.00593  -0.00616   1.04066
   D26        3.14122  -0.03525   0.00000  -0.03583  -0.03533   3.10589
   D27       -1.04757   0.00070   0.00000   0.00489   0.00499  -1.04258
   D28       -1.57199  -0.01700   0.00000  -0.02114  -0.02192  -1.59391
   D29        0.52240   0.00019   0.00000  -0.00111  -0.00176   0.52064
   D30        2.61680  -0.00754   0.00000  -0.01011  -0.01083   2.60597
   D31        2.61680  -0.01839   0.00000  -0.01956  -0.01904   2.59776
   D32       -1.57199  -0.00120   0.00000   0.00047   0.00112  -1.57087
   D33        0.52240  -0.00893   0.00000  -0.00854  -0.00795   0.51445
   D34        0.52240   0.00769   0.00000   0.00822   0.00830   0.53070
   D35        2.61680   0.02489   0.00000   0.02825   0.02845   2.64525
   D36       -1.57199   0.01716   0.00000   0.01925   0.01938  -1.55261
         Item               Value     Threshold  Converged?
 Maximum Force            0.202479     0.000450     NO 
 RMS     Force            0.043622     0.000300     NO 
 Maximum Displacement     0.865107     0.001800     NO 
 RMS     Displacement     0.276450     0.001200     NO 
 Predicted change in Energy=-1.213690D-01
 Lowest energy point so far.  Saving SCF results.
 GradGradGradGradGradGradGradGradGradGradGradGradGradGradGradGradGradGrad

 Leave Link  103 at Fri Nov  3 15:08:07 2017, MaxMem=   134217728 cpu:               0.0 elap:               0.1
 (Enter /n/sw/g16_nehalem/g16/l202.exe)
                          Input orientation:                          
 ---------------------------------------------------------------------
 Center     Atomic      Atomic             Coordinates (Angstroms)
 Number     Number       Type             X           Y           Z
 ---------------------------------------------------------------------
      1          6           0       -5.856791    0.849451   -0.027630
      2          1           0       -5.399456   -0.122305    0.062993
      3          1           0       -5.495013    1.346998   -0.912973
      4          6           0       -5.400331    1.691814    1.206100
      5          1           0       -4.323659    1.712763    1.164402
      6          1           0       -5.728555    1.180936    2.097247
      7          6           0       -5.853518    3.182051    1.315217
      8          1           0       -5.395329    3.593073    2.200021
      9          1           0       -5.491517    3.695944    0.439307
     10          6           0       -7.368105    0.608514   -0.188847
     11          1           0       -7.820274    1.429046   -0.715816
     12          1           0       -7.523857   -0.293091   -0.754373
     13          1           0       -7.831170    0.499146    0.776884
     14          6           0       -7.365537    3.440888    1.446929
     15          1           0       -7.804372    3.575679    0.474457
     16          1           0       -7.842038    2.615980    1.948424
     17          1           0       -7.522220    4.334997    2.024060
 ---------------------------------------------------------------------
                    Distance matrix (angstroms):
                    1          2          3          4          5
     1  C    0.000000
     2  H    1.077811   0.000000
     3  H    1.078085   1.766491   0.000000
     4  C    1.562057   2.144230   2.149030   0.000000
     5  H    2.125263   2.395395   2.412745   1.077683   0.000000
     6  H    2.154398   2.438224   3.023829   1.078365   1.768268
     7  C    2.691519   3.562724   2.908741   1.561439   2.126505
     8  H    3.564105   4.286134   3.839990   2.145389   2.399281
     9  H    2.907573   3.837852   2.710391   2.147748   2.413020
    10  C    1.538866   2.114970   2.139671   2.644153   3.509886
    11  H    2.159814   2.978858   2.335047   3.101440   3.980205
    12  H    2.147711   2.282616   2.613667   3.506089   4.236321
    13  H    2.160585   2.609421   3.005345   2.741470   3.731711
    14  C    3.341584   4.298500   3.667748   2.641835   3.509881
    15  H    3.387843   4.430351   3.496444   3.140646   4.007723
    16  H    3.311589   4.125441   3.912344   2.714233   3.716111
    17  H    4.374028   5.312198   4.654446   3.486817   4.224443
                    6          7          8          9         10
     6  H    0.000000
     7  C    2.152126   0.000000
     8  H    2.437213   1.077847   0.000000
     9  H    3.021625   1.078124   1.766338   0.000000
    10  C    2.870891   3.343542   4.301875   3.667204   0.000000
    11  H    3.514281   3.326598   4.366403   3.449093   1.074908
    12  H    3.677989   4.376054   5.325537   4.633322   1.075625
    13  H    2.574721   3.376224   4.187007   3.975858   1.076581
    14  C    2.865310   1.539658   2.114717   2.142967   3.270797
    15  H    3.560513   2.160475   2.963336   2.316247   3.071542
    16  H    2.558966   2.162313   2.646582   2.994780   2.970262
    17  H    3.629145   2.148560   2.259442   2.653976   4.336748
                   11         12         13         14         15
    11  H    0.000000
    12  H    1.747886   0.000000
    13  H    1.758688   1.751236   0.000000
    14  C    2.988605   4.337441   3.052805   0.000000
    15  H    2.454595   4.068918   3.091477   1.075382   0.000000
    16  H    2.916755   3.983597   2.419423   1.076580   1.759267
    17  H    4.005035   5.398045   4.045324   1.075667   1.748554
                   16         17
    16  H    0.000000
    17  H    1.750150   0.000000
 Stoichiometry    C5H12
 Framework group  C1[X(C5H12)]
 Deg. of freedom    45
 Full point group                 C1      NOp   1
 RotChk:  IX=0 Diff= 1.83D-02
 Largest Abelian subgroup         C1      NOp   1
 Largest concise Abelian subgroup C1      NOp   1
                         Standard orientation:                         
 ---------------------------------------------------------------------
 Center     Atomic      Atomic             Coordinates (Angstroms)
 Number     Number       Type             X           Y           Z
 ---------------------------------------------------------------------
      1          6           0        1.345212   -0.522676    0.221406
      2          1           0        2.140913   -1.081758   -0.243314
      3          1           0        1.356310   -0.680889    1.287761
      4          6           0       -0.001695   -1.094052   -0.325760
      5          1           0       -0.000522   -2.141306   -0.071478
      6          1           0       -0.004196   -0.971035   -1.397082
      7          6           0       -1.346305   -0.521585    0.224147
      8          1           0       -2.145215   -1.078641   -0.237571
      9          1           0       -1.354080   -0.679989    1.290542
     10          6           0        1.636616    0.963323   -0.052458
     11          1           0        1.189992    1.575421    0.709966
     12          1           0        2.700404    1.122228   -0.043941
     13          1           0        1.249274    1.245527   -1.016488
     14          6           0       -1.634181    0.965157   -0.053834
     15          1           0       -1.264211    1.571385    0.753666
     16          1           0       -1.169718    1.267963   -0.976659
     17          1           0       -2.696835    1.110094   -0.136412
 ---------------------------------------------------------------------
 Rotational constants (GHZ):           6.8465561           3.3170764           2.4770692
 Leave Link  202 at Fri Nov  3 15:08:07 2017, MaxMem=   134217728 cpu:               0.0 elap:               0.0
 (Enter /n/sw/g16_nehalem/g16/l301.exe)
 Standard basis: VSTO-6G (5D, 7F)
 Ernie: Thresh=  0.10000D-02 Tol=  0.10000D-05 Strict=F.
  NNHCO=     0 NNPyr=     0 NCTC=     0               EPep=         0.000000000
    EC=        93.685006208  ECS=         1.871747198   EG=         0.554650274
   EHC=         0.000000000  EAt=       -26.628119222  AtH=         2.358010613
 EPDDG=         0.001362704  ECC=        96.112766384 EAtT=        28.986129834
 There are    32 symmetry adapted cartesian basis functions of A   symmetry.
 There are    32 symmetry adapted basis functions of A   symmetry.
    32 basis functions,   192 primitive gaussians,    32 cartesian basis functions
    16 alpha electrons       16 beta electrons
       nuclear repulsion energy       125.0988962183 Hartrees.
 IExCor=    0 DFT=F Ex=HF Corr=None ExCW=0 ScaHFX=  1.000000
 ScaDFX=  1.000000  1.000000  1.000000  1.000000 ScalE2=  1.000000  1.000000
 IRadAn=      5 IRanWt=     -1 IRanGd=            0 ICorTp=0 IEmpDi=  4
 Integral buffers will be    131072 words long.
 Regular integral format.
 Two-electron integral symmetry is turned off.
 Leave Link  301 at Fri Nov  3 15:08:08 2017, MaxMem=   134217728 cpu:               0.1 elap:               0.1
 (Enter /n/sw/g16_nehalem/g16/l302.exe)
 Do NDO integrals.
 NPDir=0 NMtPBC=     1 NCelOv=     1 NCel=       1 NClECP=     1 NCelD=      1
         NCelK=      1 NCelE2=     1 NClLst=     1 CellRange=     0.0.
 One-electron integrals computed using PRISM.
 NBasis=    32 RedAO= F EigKep=  0.00D+00  NBF=    32
 NBsUse=    32 1.00D-04 EigRej=  0.00D+00 NBFU=    32
 Leave Link  302 at Fri Nov  3 15:08:08 2017, MaxMem=   134217728 cpu:               0.1 elap:               0.1
 (Enter /n/sw/g16_nehalem/g16/l303.exe)
 DipDrv:  MaxL=1.
 Leave Link  303 at Fri Nov  3 15:08:08 2017, MaxMem=   134217728 cpu:               0.0 elap:               0.1
 (Enter /n/sw/g16_nehalem/g16/l401.exe)
 Initial guess from the checkpoint file:  "/scratch/dhuang9_pentane_conformation_4/Gau-59143.chk"
 B after Tr=     0.000000    0.000000    0.000000
         Rot=    0.999981   -0.006184   -0.000326    0.000044 Ang=  -0.71 deg.
 Guess basis will be translated and rotated to current coordinates.
 JPrj=0 DoOrth=T DoCkMO=T.
 Leave Link  401 at Fri Nov  3 15:08:08 2017, MaxMem=   134217728 cpu:               0.2 elap:               0.2
 (Enter /n/sw/g16_nehalem/g16/l502.exe)
 Keep J ints in memory in canonical form, NReq=861453.
 FoFCou: FMM=F IPFlag=           0 FMFlag=           0 FMFlg1=           0
         NFxFlg=           0 DoJE=F BraDBF=F KetDBF=F FulRan=T
         wScrn=  0.000000 ICntrl=       600 IOpCl=  2 I1Cent=           0 NGrid=           0
         NMat0=    1 NMatS0=     62 NMatT0=    0 NMatD0=    1 NMtDS0=    0 NMtDT0=    0
 Symmetry not used in FoFCou.
 Two-electron integral symmetry not used.
 Closed shell SCF:
 Using DIIS extrapolation, IDIIS=  1040.
 Overlap will be assumed to be unity.
 NGot=   134217728 LenX=   134153800 LenY=   134152335
 Requested convergence on RMS density matrix=1.00D-08 within 128 cycles.
 Requested convergence on MAX density matrix=1.00D-06.
 Requested convergence on             energy=1.00D-06.
 No special actions if energy rises.

 Cycle   1  Pass 1  IDiag  1:
 E= 0.326948711829829E-01
 DIIS: error= 2.16D-02 at cycle   1 NSaved=   1.
 NSaved= 1 IEnMin= 1 EnMin= 0.326948711829829E-01 IErMin= 1 ErrMin= 2.16D-02
 ErrMax= 2.16D-02  0.00D+00 EMaxC= 1.00D-01 BMatC= 1.68D-02 BMatP= 1.68D-02
 IDIUse=3 WtCom= 7.84D-01 WtEn= 2.16D-01
 Coeff-Com:  0.100D+01
 Coeff-En:   0.100D+01
 Coeff:      0.100D+01
 GapD=    2.000 DampG=2.000 DampE=0.500 DampFc=1.0000 IDamp=-1.
 RMSDP=7.43D-03 MaxDP=4.77D-02              OVMax= 0.00D+00

 Cycle   2  Pass 1  IDiag  1:
 E=-0.255508512879317E-01 Delta-E=       -0.058245722471 Rises=F Damp=F
 DIIS: error= 9.22D-03 at cycle   2 NSaved=   2.
 NSaved= 2 IEnMin= 2 EnMin=-0.255508512879317E-01 IErMin= 2 ErrMin= 9.22D-03
 ErrMax= 9.22D-03  0.00D+00 EMaxC= 1.00D-01 BMatC= 2.28D-03 BMatP= 1.68D-02
 IDIUse=3 WtCom= 9.08D-01 WtEn= 9.22D-02
 Coeff-Com: -0.491D+00 0.149D+01
 Coeff-En:   0.000D+00 0.100D+01
 Coeff:     -0.446D+00 0.145D+01
 RMSDP=4.25D-03 MaxDP=3.00D-02 DE=-5.82D-02 OVMax= 0.00D+00

 Cycle   3  Pass 1  IDiag  3:
 E=-0.360401319081092E-01 Delta-E=       -0.010489280620 Rises=F Damp=F
 DIIS: error= 1.66D-03 at cycle   3 NSaved=   3.
 NSaved= 3 IEnMin= 3 EnMin=-0.360401319081092E-01 IErMin= 3 ErrMin= 1.66D-03
 ErrMax= 1.66D-03  0.00D+00 EMaxC= 1.00D-01 BMatC= 6.86D-05 BMatP= 2.28D-03
 IDIUse=3 WtCom= 9.83D-01 WtEn= 1.66D-02
 Coeff-Com:  0.138D+00-0.558D+00 0.142D+01
 Coeff-En:   0.000D+00 0.000D+00 0.100D+01
 Coeff:      0.136D+00-0.548D+00 0.141D+01
 Gap=     0.539 Goal=   None    Shift=    0.000
 RMSDP=8.89D-04 MaxDP=6.51D-03 DE=-1.05D-02 OVMax= 8.31D-03

 Cycle   4  Pass 1  IDiag  3:
 E=-0.363919748865698E-01 Delta-E=       -0.000351842978 Rises=F Damp=F
 DIIS: error= 1.16D-04 at cycle   4 NSaved=   4.
 NSaved= 4 IEnMin= 4 EnMin=-0.363919748865698E-01 IErMin= 4 ErrMin= 1.16D-04
 ErrMax= 1.16D-04  0.00D+00 EMaxC= 1.00D-01 BMatC= 9.45D-07 BMatP= 6.86D-05
 IDIUse=3 WtCom= 9.99D-01 WtEn= 1.16D-03
 Coeff-Com: -0.412D-01 0.173D+00-0.509D+00 0.138D+01
 Coeff-En:   0.000D+00 0.000D+00 0.000D+00 0.100D+01
 Coeff:     -0.412D-01 0.173D+00-0.508D+00 0.138D+01
 Gap=     0.539 Goal=   None    Shift=    0.000
 RMSDP=9.89D-05 MaxDP=5.35D-04 DE=-3.52D-04 OVMax= 7.10D-04

 Cycle   5  Pass 1  IDiag  3:
 E=-0.363968544576920E-01 Delta-E=       -0.000004879571 Rises=F Damp=F
 DIIS: error= 4.13D-05 at cycle   5 NSaved=   5.
 NSaved= 5 IEnMin= 5 EnMin=-0.363968544576920E-01 IErMin= 5 ErrMin= 4.13D-05
 ErrMax= 4.13D-05  0.00D+00 EMaxC= 1.00D-01 BMatC= 5.25D-08 BMatP= 9.45D-07
 IDIUse=1 WtCom= 1.00D+00 WtEn= 0.00D+00
 Coeff-Com:  0.160D-01-0.673D-01 0.204D+00-0.670D+00 0.152D+01
 Coeff:      0.160D-01-0.673D-01 0.204D+00-0.670D+00 0.152D+01
 Gap=     0.539 Goal=   None    Shift=    0.000
 RMSDP=2.46D-05 MaxDP=2.02D-04 DE=-4.88D-06 OVMax= 1.41D-04

 Cycle   6  Pass 1  IDiag  3:
 E=-0.363971513493908E-01 Delta-E=       -0.000000296892 Rises=F Damp=F
 DIIS: error= 1.06D-05 at cycle   6 NSaved=   6.
 NSaved= 6 IEnMin= 6 EnMin=-0.363971513493908E-01 IErMin= 6 ErrMin= 1.06D-05
 ErrMax= 1.06D-05  0.00D+00 EMaxC= 1.00D-01 BMatC= 3.41D-09 BMatP= 5.25D-08
 IDIUse=1 WtCom= 1.00D+00 WtEn= 0.00D+00
 Coeff-Com: -0.554D-02 0.233D-01-0.713D-01 0.248D+00-0.734D+00 0.154D+01
 Coeff:     -0.554D-02 0.233D-01-0.713D-01 0.248D+00-0.734D+00 0.154D+01
 Gap=     0.539 Goal=   None    Shift=    0.000
 RMSDP=6.94D-06 MaxDP=6.36D-05 DE=-2.97D-07 OVMax= 4.36D-05

 Cycle   7  Pass 1  IDiag  3:
 E=-0.363971724739116E-01 Delta-E=       -0.000000021125 Rises=F Damp=F
 DIIS: error= 1.78D-06 at cycle   7 NSaved=   7.
 NSaved= 7 IEnMin= 7 EnMin=-0.363971724739116E-01 IErMin= 7 ErrMin= 1.78D-06
 ErrMax= 1.78D-06  0.00D+00 EMaxC= 1.00D-01 BMatC= 2.21D-10 BMatP= 3.41D-09
 IDIUse=1 WtCom= 1.00D+00 WtEn= 0.00D+00
 Coeff-Com:  0.152D-02-0.633D-02 0.195D-01-0.713D-01 0.238D+00-0.694D+00
 Coeff-Com:  0.151D+01
 Coeff:      0.152D-02-0.633D-02 0.195D-01-0.713D-01 0.238D+00-0.694D+00
 Coeff:      0.151D+01
 Gap=     0.539 Goal=   None    Shift=    0.000
 RMSDP=1.83D-06 MaxDP=1.40D-05 DE=-2.11D-08 OVMax= 1.02D-05

 Cycle   8  Pass 1  IDiag  3:
 E=-0.363971738929791E-01 Delta-E=       -0.000000001419 Rises=F Damp=F
 DIIS: error= 4.65D-07 at cycle   8 NSaved=   8.
 NSaved= 8 IEnMin= 8 EnMin=-0.363971738929791E-01 IErMin= 8 ErrMin= 4.65D-07
 ErrMax= 4.65D-07  0.00D+00 EMaxC= 1.00D-01 BMatC= 1.43D-11 BMatP= 2.21D-10
 IDIUse=1 WtCom= 1.00D+00 WtEn= 0.00D+00
 Coeff-Com: -0.219D-03 0.891D-03-0.283D-02 0.118D-01-0.463D-01 0.178D+00
 Coeff-Com: -0.632D+00 0.149D+01
 Coeff:     -0.219D-03 0.891D-03-0.283D-02 0.118D-01-0.463D-01 0.178D+00
 Coeff:     -0.632D+00 0.149D+01
 Gap=     0.539 Goal=   None    Shift=    0.000
 RMSDP=4.86D-07 MaxDP=3.35D-06 DE=-1.42D-09 OVMax= 2.85D-06

 Cycle   9  Pass 1  IDiag  3:
 E=-0.363971739856623E-01 Delta-E=       -0.000000000093 Rises=F Damp=F
 DIIS: error= 1.50D-07 at cycle   9 NSaved=   9.
 NSaved= 9 IEnMin= 9 EnMin=-0.363971739856623E-01 IErMin= 9 ErrMin= 1.50D-07
 ErrMax= 1.50D-07  0.00D+00 EMaxC= 1.00D-01 BMatC= 7.43D-13 BMatP= 1.43D-11
 IDIUse=1 WtCom= 1.00D+00 WtEn= 0.00D+00
 Coeff-Com:  0.192D-04-0.682D-04 0.252D-03-0.174D-02 0.946D-02-0.499D-01
 Coeff-Com:  0.232D+00-0.727D+00 0.154D+01
 Coeff:      0.192D-04-0.682D-04 0.252D-03-0.174D-02 0.946D-02-0.499D-01
 Coeff:      0.232D+00-0.727D+00 0.154D+01
 Gap=     0.539 Goal=   None    Shift=    0.000
 RMSDP=1.06D-07 MaxDP=1.03D-06 DE=-9.27D-11 OVMax= 8.26D-07

 Cycle  10  Pass 1  IDiag  3:
 E=-0.363971739902240E-01 Delta-E=       -0.000000000005 Rises=F Damp=F
 DIIS: error= 4.92D-08 at cycle  10 NSaved=  10.
 NSaved=10 IEnMin=10 EnMin=-0.363971739902240E-01 IErMin=10 ErrMin= 4.92D-08
 ErrMax= 4.92D-08  0.00D+00 EMaxC= 1.00D-01 BMatC= 4.83D-14 BMatP= 7.43D-13
 IDIUse=1 WtCom= 1.00D+00 WtEn= 0.00D+00
 Coeff-Com: -0.228D-05 0.406D-05-0.306D-04 0.470D-03-0.313D-02 0.187D-01
 Coeff-Com: -0.941D-01 0.317D+00-0.852D+00 0.161D+01
 Coeff:     -0.228D-05 0.406D-05-0.306D-04 0.470D-03-0.313D-02 0.187D-01
 Coeff:     -0.941D-01 0.317D+00-0.852D+00 0.161D+01
 Gap=     0.539 Goal=   None    Shift=    0.000
 RMSDP=2.88D-08 MaxDP=3.20D-07 DE=-4.56D-12 OVMax= 2.12D-07

 Cycle  11  Pass 1  IDiag  3:
 E=-0.363971739902951E-01 Delta-E=        0.000000000000 Rises=F Damp=F
 DIIS: error= 7.87D-09 at cycle  11 NSaved=  11.
 NSaved=11 IEnMin=11 EnMin=-0.363971739902951E-01 IErMin=11 ErrMin= 7.87D-09
 ErrMax= 7.87D-09  0.00D+00 EMaxC= 1.00D-01 BMatC= 2.14D-15 BMatP= 4.83D-14
 IDIUse=1 WtCom= 1.00D+00 WtEn= 0.00D+00
 Coeff-Com:  0.351D-06 0.884D-06 0.503D-05-0.171D-03 0.123D-02-0.754D-02
 Coeff-Com:  0.387D-01-0.132D+00 0.376D+00-0.859D+00 0.158D+01
 Coeff:      0.351D-06 0.884D-06 0.503D-05-0.171D-03 0.123D-02-0.754D-02
 Coeff:      0.387D-01-0.132D+00 0.376D+00-0.859D+00 0.158D+01
 Gap=     0.539 Goal=   None    Shift=    0.000
 RMSDP=5.89D-09 MaxDP=5.57D-08 DE=-7.11D-14 OVMax= 4.38D-08

 Cycle  12  Pass 2  IDiag  1:
 SCF Done:  E(RPDDG) = -0.363971739903E-01 A.U. after   12 cycles
            NFock= 11  Conv=0.59D-08     -V/T= 0.9991
 KE=-4.252740824667D+01 PE=-1.863160258816D+02 EE= 1.037081407360D+02
 Leave Link  502 at Fri Nov  3 15:08:08 2017, MaxMem=   134217728 cpu:               0.1 elap:               0.1
 (Enter /n/sw/g16_nehalem/g16/l701.exe)
 ... and contract with generalized density number  0.
 Compute integral first derivatives.
 Leave Link  701 at Fri Nov  3 15:08:08 2017, MaxMem=   134217728 cpu:               0.1 elap:               0.1
 (Enter /n/sw/g16_nehalem/g16/l702.exe)
 L702 exits ... SP integral derivatives will be done elsewhere.
 Leave Link  702 at Fri Nov  3 15:08:08 2017, MaxMem=   134217728 cpu:               0.0 elap:               0.1
 (Enter /n/sw/g16_nehalem/g16/l703.exe)
 Integral derivatives from FoFJK, PRISM(SPDF).
 Compute integral first derivatives, UseDBF=F ICtDFT=           0.
 Calling FoFJK, ICntrl=      2127 FMM=F ISym2X=0 I1Cent= 0 IOpClX= 0 NMat=1 NMatS=1 NMatT=0.
 FoFJK:  IHMeth=41 ICntrl=    2127 DoSepK=F KAlg= 0 I1Cent=           0 FoldK=F
 IRaf=         0 NMat=       1 IRICut=       1 DoRegI=T DoRafI=F ISym2E= 0 IDoP0=3 IntGTp=3.
 FoFCou: FMM=F IPFlag=           0 FMFlag=      100000 FMFlg1=         800
         NFxFlg=           0 DoJE=F BraDBF=F KetDBF=F FulRan=T
         wScrn=  0.000000 ICntrl=      2127 IOpCl=  0 I1Cent=           0 NGrid=           0
         NMat0=    1 NMatS0=      1 NMatT0=    0 NMatD0=    1 NMtDS0=    0 NMtDT0=    0
 Symmetry not used in FoFCou.
 Leave Link  703 at Fri Nov  3 15:08:08 2017, MaxMem=   134217728 cpu:               0.1 elap:               0.1
 (Enter /n/sw/g16_nehalem/g16/l716.exe)
 Dipole        = 1.36630650D-03-2.36347353D-02-1.11608548D-02
 ***** Axes restored to original set *****
 -------------------------------------------------------------------
 Center     Atomic                   Forces (Hartrees/Bohr)
 Number     Number              X              Y              Z
 -------------------------------------------------------------------
      1        6          -0.018961515    0.025720409    0.024116703
      2        1           0.013000639   -0.014648175    0.000196580
      3        1           0.008518076    0.005209371   -0.016124571
      4        6          -0.037171527    0.013130697   -0.023167824
      5        1           0.018682784   -0.001828098    0.003285568
      6        1          -0.004040437   -0.009100677    0.015564408
      7        6          -0.019209689   -0.033797797   -0.010074821
      8        1           0.013600203    0.006960864    0.012616345
      9        1           0.008671486    0.011344697   -0.012600338
     10        6           0.032589862    0.008791638    0.010144796
     11        1          -0.009651845    0.010719331   -0.003851377
     12        1          -0.005766631   -0.010024916   -0.007208708
     13        1          -0.008224527   -0.000045785    0.010553492
     14        6           0.032464510   -0.012757030   -0.002918715
     15        1          -0.009693284   -0.000875643   -0.010832333
     16        1          -0.008492851   -0.009717280    0.004433090
     17        1          -0.006315254    0.010918392    0.005867705
 -------------------------------------------------------------------
 Cartesian Forces:  Max     0.037171527 RMS     0.014790358
 Leave Link  716 at Fri Nov  3 15:08:08 2017, MaxMem=   134217728 cpu:               0.0 elap:               0.1
 (Enter /n/sw/g16_nehalem/g16/l103.exe)

 GradGradGradGradGradGradGradGradGradGradGradGradGradGradGradGradGradGrad
 Berny optimization.
 Using GEDIIS/GDIIS optimizer.
 FormGI is forming the generalized inverse of G from B-inverse, IUseBI=4.
 Internal  Forces:  Max     0.031312500 RMS     0.010343854
 Search for a local minimum.
 Step number   2 out of a maximum of   92
 All quantities printed in internal units (Hartrees-Bohrs-Radians)
 RMS Force = .10344D-01 SwitMx=.10000D-02 MixMth= 1
 Mixed Optimization -- RFO/linear search
 Update second derivatives using D2CorX and points    1    2
 DE= -2.89D-02 DEPred=-1.21D-01 R= 2.38D-01
 Trust test= 2.38D-01 RLast= 3.38D-01 DXMaxT set to 3.00D-01
 ITU=  0  0
 Use linear search instead of GDIIS.
     Eigenvalues ---    0.00237   0.00237   0.00237   0.00246   0.03086
     Eigenvalues ---    0.03180   0.03405   0.04740   0.04759   0.04923
     Eigenvalues ---    0.05572   0.05675   0.05726   0.05730   0.08819
     Eigenvalues ---    0.08847   0.09173   0.12575   0.12609   0.12812
     Eigenvalues ---    0.15984   0.16000   0.16000   0.16000   0.16000
     Eigenvalues ---    0.16010   0.22149   0.22177   0.27896   0.28492
     Eigenvalues ---    0.28519   0.28519   0.36087   0.37228   0.37230
     Eigenvalues ---    0.37230   0.37230   0.37230   0.37230   0.37230
     Eigenvalues ---    0.37230   0.37230   0.37230   0.37230   1.38690
 RFO step:  Lambda=-1.09436870D-02 EMin= 2.36817461D-03
 Quartic linear search produced a step of -0.36425.
 Iteration  1 RMS(Cart)=  0.10995634 RMS(Int)=  0.00258530
 Iteration  2 RMS(Cart)=  0.00390498 RMS(Int)=  0.00031958
 Iteration  3 RMS(Cart)=  0.00000626 RMS(Int)=  0.00031956
 Iteration  4 RMS(Cart)=  0.00000000 RMS(Int)=  0.00031956
 ITry= 1 IFail=0 DXMaxC= 3.12D-01 DCOld= 1.00D+10 DXMaxT= 3.00D-01 DXLimC= 3.00D+00 Rises=F
 Variable       Old X    -DE/DX   Delta X   Delta X   Delta X     New X
                                 (Linear)    (Quad)   (Total)
    R1        2.03677   0.01874  -0.00538   0.04564   0.04027   2.07704
    R2        2.03729   0.01850  -0.00557   0.04576   0.04020   2.07748
    R3        2.95186  -0.03131  -0.01518  -0.02862  -0.04381   2.90805
    R4        2.90804  -0.01127   0.00078  -0.02621  -0.02543   2.88261
    R5        2.03653   0.01850  -0.00529   0.04501   0.03972   2.07625
    R6        2.03781   0.01840  -0.00576   0.04612   0.04036   2.07817
    R7        2.95069  -0.03079  -0.01476  -0.02859  -0.04335   2.90734
    R8        2.03684   0.01879  -0.00540   0.04580   0.04040   2.07723
    R9        2.03736   0.01856  -0.00559   0.04592   0.04033   2.07769
   R10        2.90953  -0.01021   0.00024  -0.02252  -0.02229   2.88724
   R11        2.03128   0.01413  -0.00338   0.03259   0.02921   2.06049
   R12        2.03264   0.01303  -0.00387   0.03210   0.02822   2.06086
   R13        2.03444   0.01301  -0.00453   0.03384   0.02931   2.06375
   R14        2.03218   0.01364  -0.00370   0.03266   0.02896   2.06113
   R15        2.03444   0.01327  -0.00453   0.03427   0.02974   2.06418
   R16        2.03272   0.01314  -0.00390   0.03237   0.02846   2.06118
    A1        1.92064  -0.00585  -0.00365   0.01553   0.01253   1.93317
    A2        1.87109   0.00544   0.01440  -0.01444  -0.00033   1.87076
    A3        1.85914   0.01088   0.01876   0.00771   0.02620   1.88534
    A4        1.87724   0.00840   0.01216  -0.02496  -0.01257   1.86467
    A5        1.89209   0.00766   0.00676  -0.01557  -0.00889   1.88319
    A6        2.04223  -0.02649  -0.04793   0.03287  -0.01538   2.02684
    A7        1.84613   0.00913   0.02350  -0.00139   0.02129   1.86742
    A8        1.88417   0.00855   0.00964  -0.03715  -0.02736   1.85681
    A9        2.07722  -0.02962  -0.06068   0.05112  -0.01037   2.06685
   A10        1.92332  -0.00558  -0.00462   0.02948   0.02627   1.94959
   A11        1.84847   0.00889   0.02264  -0.00103   0.02077   1.86923
   A12        1.88185   0.00885   0.01049  -0.03710  -0.02643   1.85541
   A13        1.87333   0.00484   0.01359  -0.01486  -0.00159   1.87173
   A14        1.87621   0.00829   0.01254  -0.02637  -0.01357   1.86265
   A15        2.03919  -0.02589  -0.04683   0.03226  -0.01488   2.02431
   A16        1.92030  -0.00587  -0.00352   0.01383   0.01089   1.93119
   A17        1.85786   0.01123   0.01922   0.01030   0.02926   1.88712
   A18        1.89559   0.00742   0.00548  -0.01419  -0.00882   1.88677
   A19        1.92300   0.00334  -0.00451   0.01803   0.01340   1.93640
   A20        1.90554   0.00507   0.00186   0.02361   0.02518   1.93072
   A21        1.92235   0.00176  -0.00427   0.01016   0.00585   1.92820
   A22        1.89778  -0.00310   0.00468  -0.01109  -0.00676   1.89102
   A23        1.91387  -0.00449  -0.00118  -0.03089  -0.03195   1.88191
   A24        1.90096  -0.00267   0.00352  -0.01015  -0.00681   1.89414
   A25        1.92246   0.00384  -0.00431   0.01911   0.01465   1.93711
   A26        1.92378   0.00153  -0.00479   0.01036   0.00553   1.92930
   A27        1.90570   0.00578   0.00180   0.02677   0.02823   1.93394
   A28        1.91417  -0.00471  -0.00129  -0.03227  -0.03343   1.88074
   A29        1.89817  -0.00367   0.00454  -0.01285  -0.00872   1.88946
   A30        1.89917  -0.00287   0.00418  -0.01152  -0.00756   1.89160
    D1        1.01688   0.00051   0.01034   0.06198   0.07177   1.08865
    D2       -1.04174  -0.00193  -0.00270   0.04676   0.04412  -0.99762
    D3        3.09110   0.00071   0.01769   0.09165   0.10935  -3.08273
    D4       -1.04812   0.00011  -0.00037   0.06441   0.06385  -0.98427
    D5       -3.10673  -0.00233  -0.01340   0.04919   0.03620  -3.07053
    D6        1.02611   0.00031   0.00698   0.09408   0.10143   1.12753
    D7        3.10205   0.00167   0.01370   0.08214   0.09540  -3.08573
    D8        1.04343  -0.00077   0.00066   0.06692   0.06775   1.11119
    D9       -1.10692   0.00187   0.02105   0.11181   0.13298  -0.97393
   D10       -2.69051  -0.00322  -0.00754  -0.04639  -0.05389  -2.74439
   D11       -0.60746  -0.00187  -0.00341  -0.03449  -0.03769  -0.64515
   D12        1.47909  -0.00093  -0.00055  -0.02616  -0.02646   1.45263
   D13       -0.62416  -0.00026   0.00267  -0.03205  -0.02950  -0.65366
   D14        1.45889   0.00109   0.00681  -0.02015  -0.01331   1.44558
   D15       -2.73775   0.00203   0.00967  -0.01182  -0.00208  -2.73983
   D16        1.50115  -0.00167  -0.00859  -0.05447  -0.06334   1.43781
   D17       -2.69899  -0.00032  -0.00445  -0.04257  -0.04714  -2.74613
   D18       -0.61244   0.00062  -0.00159  -0.03424  -0.03591  -0.64835
   D19       -3.09103  -0.00055  -0.01855  -0.10139  -0.11994   3.07221
   D20       -1.02580  -0.00053  -0.00793  -0.10683  -0.11510  -1.14090
   D21        1.10891  -0.00208  -0.02261  -0.12420  -0.14688   0.96203
   D22       -1.01801  -0.00027  -0.01077  -0.07182  -0.08209  -1.10010
   D23        1.04722  -0.00025  -0.00014  -0.07726  -0.07725   0.96997
   D24       -3.10126  -0.00180  -0.01483  -0.09463  -0.10902   3.07291
   D25        1.04066   0.00220   0.00224  -0.05644  -0.05430   0.98637
   D26        3.10589   0.00222   0.01287  -0.06188  -0.04946   3.05644
   D27       -1.04258   0.00067  -0.00182  -0.07926  -0.08123  -1.12381
   D28       -1.59391   0.00167   0.00798   0.04773   0.05606  -1.53786
   D29        0.52064  -0.00072   0.00064   0.02664   0.02738   0.54802
   D30        2.60597   0.00027   0.00395   0.03539   0.03948   2.64545
   D31        2.59776   0.00332   0.00694   0.03875   0.04566   2.64342
   D32       -1.57087   0.00093  -0.00041   0.01765   0.01699  -1.55389
   D33        0.51445   0.00192   0.00290   0.02640   0.02908   0.54353
   D34        0.53070   0.00028  -0.00302   0.02424   0.02134   0.55204
   D35        2.64525  -0.00211  -0.01036   0.00315  -0.00734   2.63792
   D36       -1.55261  -0.00112  -0.00706   0.01190   0.00476  -1.54784
         Item               Value     Threshold  Converged?
 Maximum Force            0.031312     0.000450     NO 
 RMS     Force            0.010344     0.000300     NO 
 Maximum Displacement     0.312101     0.001800     NO 
 RMS     Displacement     0.108938     0.001200     NO 
 Predicted change in Energy=-1.079695D-03
 Lowest energy point so far.  Saving SCF results.
 GradGradGradGradGradGradGradGradGradGradGradGradGradGradGradGradGradGrad

 Leave Link  103 at Fri Nov  3 15:08:08 2017, MaxMem=   134217728 cpu:               0.0 elap:               0.0
 (Enter /n/sw/g16_nehalem/g16/l202.exe)
                          Input orientation:                          
 ---------------------------------------------------------------------
 Center     Atomic      Atomic             Coordinates (Angstroms)
 Number     Number       Type             X           Y           Z
 ---------------------------------------------------------------------
      1          6           0       -5.856090    0.861408    0.002245
      2          1           0       -5.432133   -0.146425    0.114479
      3          1           0       -5.484216    1.340763   -0.914552
      4          6           0       -5.345281    1.703833    1.184416
      5          1           0       -4.251075    1.750224    1.096599
      6          1           0       -5.657992    1.177910    2.098202
      7          6           0       -5.849586    3.150555    1.324593
      8          1           0       -5.430969    3.552524    2.258122
      9          1           0       -5.464853    3.705171    0.456719
     10          6           0       -7.370418    0.725350   -0.120964
     11          1           0       -7.800561    1.594203   -0.619935
     12          1           0       -7.630647   -0.164276   -0.695566
     13          1           0       -7.828589    0.646485    0.867229
     14          6           0       -7.366311    3.329506    1.368041
     15          1           0       -7.776318    3.433949    0.362744
     16          1           0       -7.841327    2.462819    1.833203
     17          1           0       -7.635375    4.217882    1.940827
 ---------------------------------------------------------------------
                    Distance matrix (angstroms):
                    1          2          3          4          5
     1  C    0.000000
     2  H    1.099120   0.000000
     3  H    1.099357   1.809239   0.000000
     4  C    1.538875   2.139104   2.134664   0.000000
     5  H    2.136277   2.440642   2.394373   1.098704   0.000000
     6  H    2.128956   2.395837   3.022152   1.099722   1.819387
     7  C    2.643642   3.536767   2.902174   1.538499   2.137322
     8  H    3.537204   4.275211   3.867891   2.139590   2.447360
     9  H    2.906303   3.866910   2.733347   2.132884   2.388414
    10  C    1.525411   2.138311   2.136883   2.600505   3.501874
    11  H    2.169115   3.029620   2.348719   3.048951   3.945843
    12  H    2.165184   2.343066   2.630639   3.499581   4.277695
    13  H    2.164518   2.634073   3.025367   2.717612   3.750927
    14  C    3.199636   4.170679   3.564774   2.600210   3.503214
[...]
   yyz        0.103479D+02      0.893974D-01      0.331790D-01
   zxz        0.662709D+01      0.572529D-01      0.212489D-01
   zyz        0.861220D+00      0.744027D-02      0.276138D-02
   zzz       -0.168040D+02     -0.145174D+00     -0.538798D-01

 ----------------------------------------------------------------------
 1\1\GINC-HOLY2A08203\Freq\RPDDG\ZDO\C5H12\ROOT\03-Nov-2017\0\\#P Geom=
 AllCheck Guess=TCheck SCRF=Check GenChk RPDDG/ZDO Freq\\pentane confor
 mation 4\\0,1\C,-5.9613590443,1.073191978,-0.070125143\H,-5.2117937043
 ,0.3340884817,-0.4196443375\H,-5.9728226764,1.866335058,-0.8493998129\
 C,-5.5617227151,1.6437312473,1.2907934545\H,-4.4972901433,1.4157419136
 ,1.5063037041\H,-6.1315634753,1.1566484709,2.1133263578\C,-5.755633111
 ,3.152513585,1.3609607692\H,-5.3645643752,3.5286072104,2.3276534789\H,
 -5.1539737165,3.6546160309,0.5754075835\C,-7.3237528933,0.408028598,-0
 .0068661962\H,-8.1034881477,1.1110248321,0.3161500326\H,-7.620460037,0
 .0103014651,-0.9825727494\H,-7.3352679698,-0.4252400631,0.7055512132\C
 ,-7.2151998461,3.5309868384,1.2068902687\H,-7.5679183056,3.347191577,0
 .1832138648\H,-7.8624018143,2.9441289924,1.871449179\H,-7.3825295047,4
 .5899853542,1.4273105728\\Version=ES64L-G16RevA.03\State=1-A\HF=-0.053
 1338\RMSD=4.499e-10\RMSF=1.419e-05\ZeroPoint=0.1556389\Thermal=0.16199
 42\Dipole=-0.0222602,0.0057593,0.0004961\DipoleDeriv=0.00284,0.0630083
 ,0.050509,0.0365278,-0.0838913,0.0212434,0.0398101,0.0298263,-0.047560
 6,0.0200027,-0.000396,-0.0092952,-0.0092107,0.034836,-0.0094349,-0.006
 3328,-0.0235662,0.0358911,0.041881,-0.0248956,-0.0039292,-0.0069684,0.
 04869,-0.0028971,-0.0089222,0.0159352,0.0403138,-0.1442686,0.007745,0.
 000269,0.0233977,-0.0385376,0.050238,-0.0030586,0.0562069,-0.0597669,0
 .0356499,-0.0019638,-0.0023275,0.0148368,0.0192185,-0.0173116,-0.01442
 18,-0.0209606,0.0376365,0.0607721,0.0004573,-0.0027354,-0.0133752,0.03
 64034,-0.0031306,0.0138217,-0.0043508,0.0388354,-0.0025451,-0.0750156,
 -0.0093747,-0.0671195,-0.0166266,-0.0263005,0.0026501,-0.0311045,-0.09
 13139,0.0334783,0.01285,-0.0122639,0.0073399,0.0218701,-0.0185172,-0.0
 019102,0.001339,0.0397234,0.0282927,0.0101273,0.0128554,0.0065693,0.03
 3127,0.0136451,-0.0003299,0.0037464,0.0413281,-0.1753745,0.0087283,-0.
 0184551,0.0023387,-0.2084458,-0.0328136,-0.0269111,-0.0388497,-0.19928
 11,0.0401971,0.023969,0.0153236,-0.0161705,0.0837597,0.0099325,0.00357
 19,0.0095533,0.0717546,0.0445036,-0.0194241,-0.0173571,-0.0129042,0.06
 04536,-0.0124263,0.0061667,-0.001817,0.0507836,0.0477948,-0.0154901,0.
 0064552,0.0014048,0.0530289,0.0196894,-0.004444,0.0139474,0.0547564,-0
 .1595123,0.0105555,0.0025476,0.0272895,-0.2443742,-0.0117749,0.0052538
 ,-0.0202853,-0.1928178,0.0452,-0.0078645,-0.0229053,0.0049126,0.088235
 7,0.0157532,0.0026802,-0.0095334,0.0488915,0.0405159,-0.0146114,0.0130
 79,0.0017385,0.0685779,0.0105824,-0.0020749,0.0228651,0.0611515,0.0405
 707,0.0222198,-0.0023939,-0.0006036,0.0436767,-0.006476,-0.0055477,-0.
 0029523,0.0696749\Polar=34.4315609,0.1031224,36.3360633,0.393651,1.486
 8985,35.0181894\HyperPolar=15.8050704,-5.903267,-6.1711646,11.9174328,
 6.6642136,1.7459042,3.7070146,-6.7618681,-6.5068968,-11.2468665\PG=C01
  [X(C5H12)]\NImag=0\\0.52700067,-0.00132377,0.53533239,-0.01130488,0.0
 0351442,0.52279444,-0.14517298,0.10641218,0.04801928,0.15952851,0.1080
 9631,-0.14759466,-0.04758158,-0.11581367,0.15893510,0.04602676,-0.0453
 0992,-0.06077558,-0.04902395,0.05739124,0.06878232,-0.04024126,0.00526
 397,-0.00490605,-0.00036616,0.01372033,-0.00871805,0.04146900,0.003761
 96,-0.15967013,0.11481975,0.00500949,-0.01549745,0.01088088,-0.0021741
 3,0.17642051,-0.00330141,0.11395450,-0.14935484,-0.00023570,-0.0008981
 8,0.00408207,0.00519901,-0.12065305,0.17270360,-0.08787194,-0.01379106
 ,-0.03802595,0.00700030,0.00451001,0.01223503,0.00350455,-0.00054433,-
 0.00335747,0.54714914,-0.01358763,-0.09792633,-0.05065850,-0.00344368,
 -0.00393757,-0.01811095,0.00351454,0.01077408,0.01324258,-0.00407270,0
 .52908806,-0.03611463,-0.05181046,-0.21572916,-0.00120626,-0.00691610,
 -0.00805142,-0.00519393,-0.00506890,-0.01953656,0.00927575,-0.00448808
 ,0.51954164,-0.00407759,-0.00044159,-0.00544270,-0.00020249,-0.0014488
 3,-0.00238965,-0.00003004,-0.00005790,0.00017492,-0.25731102,0.0449705
 2,-0.04077988,0.27998854,-0.00781942,0.00437070,-0.00322499,-0.0012106
 6,-0.00138407,-0.00323148,-0.00012951,-0.00032686,-0.00023983,0.043165
 88,-0.04801531,0.00914844,-0.04928148,0.05456021,-0.02259990,0.0008870
 8,-0.00492899,-0.00195134,-0.00344314,-0.00493416,-0.00005296,-0.00054
 316,-0.00053028,-0.03783735,0.00849981,-0.04706682,0.04698519,-0.00307
 881,0.05387488,0.00809307,0.00257163,-0.00449834,-0.00023392,-0.000097
 99,-0.00044993,-0.00023869,-0.00046242,-0.00086604,-0.10432184,-0.0521
 3724,0.08908996,-0.01790589,-0.00898179,0.01590583,0.11010735,0.004415
 73,0.00721967,-0.00602526,-0.00022440,-0.00019134,-0.00030211,-0.00043
 235,-0.00066457,-0.00074513,-0.05100914,-0.08219683,0.07122464,0.00062
 548,0.00363881,-0.00117580,0.05943069,0.09347618,0.00996766,0.00603180
 ,-0.02070141,-0.00034396,0.00004062,-0.00044828,-0.00030971,-0.0010361
 5,-0.00144632,0.08743966,0.07191400,-0.16172533,0.00206454,0.00025317,
 0.00211045,-0.09315018,-0.07719252,0.18544650,0.00414230,-0.00785740,0
 .00022194,-0.00017917,-0.00011738,-0.00061009,0.00097750,-0.00008646,-
 0.00040875,-0.07780332,0.01914153,0.00001280,-0.00037235,0.02314057,-0
 .00068394,0.00650026,-0.01284926,-0.00004205,0.53423923,-0.00213607,-0
 .02150517,-0.01626879,-0.00029996,-0.00019032,-0.00016415,-0.00037106,
 -0.00133695,-0.00438565,0.02027500,-0.25604840,-0.00320650,0.00404716,
 -0.00580370,0.00054843,0.00009124,-0.01412852,0.00276557,0.00784620,0.
 52887573,0.00193547,-0.03123180,-0.00561907,-0.00102814,-0.00076286,-0
 .00218289,-0.00064468,-0.00425276,-0.00578190,0.00047264,-0.00388064,-
 0.07569111,-0.00064333,0.00264420,0.00387613,-0.00232915,0.01634447,0.
 00346037,0.00723298,0.00936665,0.53697927,0.00030248,0.00069558,-0.000
 01521,0.00003936,0.00000949,0.00004262,-0.00002784,0.00002436,-0.00000
 184,0.00425957,-0.00005264,0.00134256,-0.00046934,0.00117595,0.0005044
 2,-0.00017035,-0.00048092,-0.00005169,-0.06681480,-0.02649445,-0.06835
 609,0.07181072,0.00074132,-0.00315137,0.00043548,-0.00020245,-0.000095
 02,-0.00038857,0.00002995,0.00004106,0.00020019,-0.00639434,-0.0096800
 6,-0.02142307,0.00135791,-0.00265903,-0.00116712,-0.00047638,-0.000771
 96,-0.00007519,-0.02691988,-0.06505518,-0.06656428,0.02608726,0.072392
 58,-0.00017116,0.00019126,0.00007475,0.00004734,-0.00000987,0.00008023
 ,-0.00000846,0.00001692,0.00005585,-0.00037000,-0.00345436,0.00225071,
 0.00060249,-0.00131235,-0.00044631,-0.00009418,-0.00014707,0.00006322,
 -0.07068252,-0.06865956,-0.22317714,0.07913063,0.07670916,0.23963819,-
 0.00021944,-0.00120283,-0.00020757,-0.00000704,0.00001479,-0.00002988,
 -0.00052538,-0.00087759,-0.00084312,0.00479049,-0.00048580,-0.00142106
 ,-0.00002052,0.00018048,-0.00013789,0.00002092,0.00074153,0.00027188,-
 0.10534926,-0.05502710,0.08832990,0.00473981,0.00163859,-0.00321150,0.
 11621347,-0.00121180,-0.00264225,-0.00069438,0.00003745,0.00001897,0.0
 0013463,-0.00068310,-0.00153292,-0.00171000,-0.01115104,-0.01446839,0.
 01793308,0.00023022,-0.00040585,0.00037808,0.00077141,-0.00284657,-0.0
 0050811,-0.05506097,-0.08584398,0.07331493,0.00206133,0.00451516,-0.00
 365533,0.06233824,0.09735842,-0.00029894,-0.00131363,0.00061032,-0.000
 00374,-0.00000483,0.00000026,-0.00017233,-0.00021265,-0.00122202,-0.00
 062276,0.00231692,0.00487200,-0.00017419,0.00039927,-0.00018361,0.0001
 7242,-0.00055911,0.00008869,0.09042370,0.07460594,-0.16205892,0.009538
 59,0.00766098,-0.01979557,-0.09807813,-0.08195840,0.17154452,-0.235407
 80,-0.07545074,0.01301116,-0.01715359,-0.00717832,0.00281536,0.0002361
 1,-0.00427484,0.00213448,-0.01505113,-0.01262132,-0.01397831,0.0000430
 0,-0.00033766,-0.00018484,-0.00130471,-0.00148154,-0.00428629,-0.00032
 563,-0.00023222,-0.00001702,0.00000282,0.00000293,-0.00000871,0.000001
 62,-0.00000384,-0.00001130,0.52729795,-0.07615307,-0.11385884,0.005741
 49,0.01151620,0.01066727,-0.00101314,-0.01854288,-0.00582740,0.0028133
 6,-0.01689219,-0.00712943,-0.00770989,-0.00013775,-0.00031104,-0.00047
 119,-0.00112205,0.00029471,-0.00236379,-0.00043173,-0.00068126,-0.0007
 1453,0.00004710,-0.00002298,-0.00003680,0.00002529,0.00002905,-0.00001
 090,0.00899933,0.52559901,0.01211827,0.00577660,-0.07732130,0.00580262
 ,0.00221724,0.00325673,0.01408019,0.00695777,0.00204928,-0.02824412,-0
 .01525563,-0.00268853,-0.00039423,-0.00114283,-0.00221392,-0.00381878,
 -0.00241512,-0.00541521,-0.00071860,-0.00025634,-0.00061676,0.00013756
 ,-0.00015200,0.00004197,-0.00004176,-0.00003758,-0.00007298,0.01012167
 ,0.01013066,0.54189582,-0.01933322,0.01207270,0.00733783,-0.00211328,-
 0.00165085,0.00009175,0.00026368,0.00010052,0.00015518,-0.00263063,-0.
 00053687,-0.00145313,0.00007419,0.00002698,0.00009099,0.00043779,0.000
 03912,0.00024918,-0.00001883,-0.00004406,0.00007289,-0.00000577,0.0000
 1671,0.00000647,-0.00001972,0.00000506,-0.00000553,-0.16217134,0.11362
 537,0.05126562,0.18308137,-0.00709558,0.01193305,0.00352349,-0.0017491
 9,-0.00102710,-0.00003917,0.00010665,0.00021290,0.00004249,-0.00039492
 ,0.00027257,-0.00027275,0.00002993,-0.00002455,0.00003696,0.00018005,-
 0.00000122,0.00004536,-0.00012730,0.00007105,0.00007373,0.00001121,-0.
 00002315,0.00000190,0.00001290,-0.00002135,0.00000361,0.11502426,-0.14
 675661,-0.04846279,-0.12346664,0.16841775,0.00219666,0.00019136,0.0032
 9726,-0.00003178,-0.00009113,0.00037304,0.00026823,0.00002355,-0.00011
 019,-0.00143807,-0.00021399,-0.00012864,0.00002920,-0.00001583,-0.0000
 4776,0.00067712,0.00002347,0.00026346,-0.00003501,-0.00001373,-0.00009
 512,-0.00002604,-0.00000831,-0.00000637,0.00003029,0.00001843,0.000014
 60,0.05144153,-0.04798839,-0.06161784,-0.05715593,0.05520514,0.0614157
 1,-0.00608701,-0.00994796,-0.02031323,-0.00111897,0.00000465,-0.000329
 35,-0.00034855,-0.00076669,-0.00003913,-0.00267891,-0.00131232,0.00057
 474,-0.00001421,-0.00018964,-0.00036361,-0.00000138,0.00003522,0.00017
 590,-0.00011308,0.00002806,-0.00015580,0.00002201,-0.00003891,0.000005
 87,0.00000532,0.00001307,-0.00001221,-0.05659351,-0.02309077,-0.057448
 10,0.00412854,0.00581758,0.01390423,0.06085331,-0.00550539,-0.00191308
 ,-0.00981739,-0.00001119,0.00010999,-0.00001928,-0.00078191,-0.0009835
 1,-0.00007013,-0.00141823,-0.00012910,0.00021639,-0.00002293,-0.000102
 61,-0.00018921,-0.00000440,0.00001734,0.00010559,-0.00000816,0.0000545
 5,0.00001355,0.00001378,-0.00001066,0.00000570,-0.00001125,-0.00000563
 ,-0.00001421,-0.02375506,-0.07265669,-0.08226528,-0.00136193,-0.005539
 79,-0.01712092,0.02963982,0.07453056,-0.00269643,-0.00097319,0.0048382
 3,-0.00047200,-0.00003391,-0.00007201,-0.00014770,-0.00017573,0.000067
 78,0.00058291,0.00016798,-0.00000484,-0.00002042,0.00005326,0.00013451
 ,0.00001383,-0.00001306,0.00002617,0.00001440,-0.00002347,0.00006579,-
 0.00000534,0.00001461,-0.00000111,-0.00000154,-0.00001849,0.00000322,-
 0.06011414,-0.08336543,-0.24871244,0.00037479,-0.00610812,-0.00785642,
 0.06673042,0.09286961,0.27018836,-0.00006457,-0.01957300,0.01558285,-0
 .00002590,0.00002182,0.00035486,-0.00291950,-0.00106050,-0.00027240,-0
 .00097425,-0.00162602,-0.00031394,-0.00000174,0.00002517,0.00013921,-0
 .00053756,-0.00054803,-0.00098528,0.00000931,0.00000162,0.00002084,-0.
 00000289,0.00001048,-0.00001412,0.00001021,0.00002356,0.00000118,-0.04
 010140,0.00275584,-0.00266704,-0.00074774,0.01392077,-0.00960021,0.001
 88791,0.00322207,-0.00424675,0.04344139,-0.00482496,-0.00720679,0.0075
 8900,-0.00000108,0.00019974,0.00005239,-0.00103943,-0.00004759,0.00001
 837,-0.00159497,-0.00191806,-0.00052694,0.00002109,0.00001839,0.000033
 81,-0.00096998,-0.00132168,-0.00144647,0.00001890,-0.00003683,-0.00005
 266,-0.00001748,0.00000837,-0.00000986,0.00000104,0.00002879,0.0000074
 7,0.00081590,-0.18626479,0.12616613,0.00516251,-0.01634969,0.01175779,
 -0.00030597,0.00676307,-0.00236830,0.00273759,0.20614408,0.00308753,0.
 00206777,0.00284178,0.00042256,0.00013841,-0.00018049,-0.00026953,-0.0
 0001356,0.00019782,-0.00085333,-0.00094617,0.00062656,0.00000571,-0.00
 000956,-0.00001817,-0.00018498,-0.00014363,-0.00113422,-0.00000840,-0.
 00002577,-0.00008292,-0.00000514,-0.00001883,0.00000208,-0.00000056,0.
 00000984,-0.00001646,-0.00112867,0.12604109,-0.14843314,-0.00025288,-0
 .00216538,0.00592647,-0.00278028,0.01631900,-0.01866481,0.00197696,-0.
 14121429,0.15894883,-0.00035532,0.00124557,0.00046095,0.00000197,0.000
 01537,-0.00001155,-0.00004271,0.00016581,0.00028402,-0.01080738,0.0187
 3935,-0.00009652,0.00017623,-0.00010816,0.00014397,-0.00009777,0.00142
 818,-0.00069253,-0.26382149,0.04241246,-0.02040974,-0.01013664,0.00212
 604,-0.00453185,-0.01545019,0.00231663,0.00037873,0.00023126,-0.000178
 73,0.00002546,-0.00030375,-0.00131606,-0.00050605,0.00004877,-0.000009
 28,0.00000148,0.00004371,-0.00002482,-0.00003582,0.53096709,0.00125645
 ,-0.00154327,-0.00122790,0.00003174,-0.00004440,0.00014699,0.00015354,
 -0.00044885,-0.00028473,0.03559736,-0.01743771,0.00325964,0.00016893,-
 0.00352484,-0.00027200,0.00165204,-0.00225203,0.00096650,0.04353504,-0
 .08770530,0.00432967,-0.00511496,0.00499432,-0.00002260,-0.00784556,0.
 00591154,-0.00105408,0.00006228,-0.00222513,-0.00094093,-0.00102960,-0
 .00312775,-0.00117886,0.00012722,-0.00008201,-0.00001823,0.00010917,0.
 00001560,-0.00003447,-0.01001037,0.55111979,0.00088082,-0.00150515,-0.
 00036607,0.00001251,-0.00005392,0.00008573,0.00044215,-0.00059604,-0.0
 0028435,0.00084791,0.00094933,0.00321909,-0.00000386,-0.00028003,0.000
 36421,-0.00087329,0.00130135,-0.00024314,-0.02009465,0.00473689,-0.079
 80884,-0.02163964,0.00440951,0.00120933,0.01631930,-0.00362478,0.00596
 599,0.00006226,-0.00083128,-0.00004861,-0.00046171,-0.00145538,-0.0000
 3497,0.00005655,-0.00001178,-0.00000780,0.00001721,-0.00000883,-0.0000
 1908,0.00018536,0.00401406,0.51708097,-0.00075346,0.00148283,0.0000832
 4,0.00000154,-0.00004296,0.00001425,-0.00167115,0.00124749,0.00136825,
 -0.00065522,0.00081904,-0.00057224,0.00002899,-0.00008740,0.00002607,-
 0.00002450,-0.00001121,-0.00002402,-0.00969367,-0.00314527,-0.02389111
 ,-0.00291629,0.00110719,0.00015668,-0.00172738,-0.00061301,-0.00031963
 ,0.00015272,-0.00013882,-0.00004425,-0.00039707,-0.00120472,0.00002844
 ,0.00000124,0.00001046,-0.00000367,-0.00002590,0.00000520,0.00001197,-
 0.06272137,-0.01283416,-0.07043554,0.07334826,0.00134552,-0.00182710,-
 0.00005611,-0.00004286,0.00003586,-0.00001106,0.00136084,-0.00110696,-
 0.00128257,0.00083516,-0.00070841,0.00057110,-0.00005507,-0.00000893,-
 0.00002630,0.00006446,-0.00007505,0.00006543,0.00183648,0.00517095,0.0
 0632774,0.00096326,-0.00001809,-0.00017267,-0.00063227,0.00012549,-0.0
 0016300,0.00023987,-0.00061854,-0.00029766,-0.00234033,-0.00664005,0.0
 0036878,-0.00001251,-0.00005447,-0.00000974,-0.00002121,0.00000454,0.0
 0000217,-0.01260494,-0.04682130,-0.03982842,0.01222437,0.05416608,0.00
 016953,-0.00040166,0.00036729,0.00001673,0.00001407,-0.00002394,0.0004
 3471,-0.00014591,-0.00083999,-0.00046607,0.00052413,-0.00030484,0.0000
 2223,-0.00004373,-0.00001579,-0.00004924,0.00005110,-0.00005532,-0.005
 28560,0.00072803,0.00099938,0.00026959,-0.00017310,0.00022067,-0.00042
 683,-0.00002786,0.00021287,0.00003335,-0.00012153,-0.00019178,0.000125
 26,0.00128267,0.00014084,0.00001058,-0.00004075,-0.00000797,0.00001653
 ,0.00002817,-0.00000279,-0.07271627,-0.04039941,-0.26112828,0.08124810
 ,0.04406762,0.28703113,0.00002737,0.00003306,0.00003953,-0.00000475,-0
 .00002513,-0.00001042,-0.00004062,-0.00002644,0.00000641,-0.00317378,0
 .00248245,0.00126741,0.00005215,-0.00018901,-0.00000533,-0.00031519,0.
 00048115,-0.00028610,-0.01766673,-0.01196371,0.01484800,0.00072371,-0.
 00002460,0.00012394,-0.00260308,0.00100688,-0.00078243,0.00010088,-0.0
 0017063,-0.00014008,-0.00025421,0.00019440,0.00019780,-0.00000414,0.00
 000193,-0.00000678,0.00001176,0.00002142,0.00001511,-0.12321747,-0.077
 67598,0.08773796,0.00445569,0.00221968,-0.00148749,0.13957397,0.000052
 00,-0.00004053,-0.00006565,-0.00002088,0.00000043,-0.00001828,0.000015
 01,0.00000295,-0.00001394,0.00246122,-0.00064705,-0.00091501,-0.000040
 36,-0.00000272,-0.00000702,-0.00048983,-0.00024311,0.00045940,0.002510
 32,0.00772306,-0.00432497,-0.00004642,-0.00001973,-0.00003778,0.001175
 42,-0.00020748,0.00035148,0.00020197,-0.00020459,0.00001378,-0.0006441
 6,-0.00138349,-0.00096998,-0.00000732,0.00000855,0.00000684,-0.0000027
 9,-0.00004355,-0.00000844,-0.07885449,-0.11412754,0.08409289,0.0013405
 9,0.00434640,-0.00007470,0.08477218,0.12101454,0.00003725,0.00003418,-
 0.00006374,-0.00002969,-0.00000267,0.00000682,0.00004131,-0.00000488,-
 0.00004783,0.00103463,-0.00071402,0.00022453,-0.00003230,-0.00002735,-
 0.00000266,0.00046357,-0.00022815,-0.00029212,0.00089562,-0.00235211,0
 .00576921,0.00002578,-0.00001136,0.00008253,-0.00063610,0.00045250,0.0
 0009659,0.00009123,-0.00001630,0.00005730,-0.00045532,-0.00173665,-0.0
 0149539,-0.00001859,0.00000746,0.00000226,-0.00002022,-0.00001486,0.00
 000983,0.08977853,0.08462436,-0.13543249,0.01178451,0.01368757,-0.0200
 6863,-0.10132687,-0.09306969,0.14635884,0.00001874,-0.00018930,-0.0000
 4289,0.00000653,-0.00001762,-0.00000772,0.00000105,0.00002165,0.000003
 58,-0.00342470,0.00020881,-0.00043333,0.00004214,0.00061974,0.00002139
 ,-0.00000753,-0.00016029,0.00000304,-0.00371019,0.02501221,0.00456242,
 -0.00135657,0.00093820,-0.00098096,0.00014015,-0.00008009,-0.00003341,
 0.00004285,-0.00011055,-0.00003444,0.00001002,0.00005676,0.00001963,0.
 00001261,0.00000170,-0.00000298,-0.00000291,-0.00000493,-0.00000028,-0
 .04451486,0.03181690,0.00694664,0.00259756,-0.00538048,-0.00191513,0.0
 0233438,-0.01242248,-0.00163330,0.04781066,-0.00001148,0.00002352,-0.0
 0000308,0.00001291,-0.00000543,0.00000197,-0.00001048,-0.00000831,0.00
 001169,0.00041825,0.00010791,-0.00001551,0.00003462,-0.00001859,-0.000
 01042,-0.00001945,0.00004617,-0.00002524,0.00542947,-0.00355974,-0.000
 63052,0.00111764,-0.00044433,0.00059331,-0.00004588,-0.00001299,-0.000
 05486,-0.00001102,-0.00003266,-0.00003611,0.00002549,-0.00001254,0.000
 01265,0.00000649,-0.00000653,-0.00000459,0.00000344,0.00000641,0.00000
 183,0.03465760,-0.28270088,-0.05130829,-0.00015972,-0.00597043,-0.0052
 6719,-0.00113768,-0.01617616,-0.00062806,-0.04031022,0.30876453,0.0000
 6728,-0.00010303,0.00003598,0.00000553,-0.00000337,0.00000154,-0.00004
 225,0.00000401,-0.00000203,-0.00067328,0.00010756,0.00019265,-0.000003
 73,0.00010841,0.00002833,-0.00000859,0.00000195,0.00000254,-0.00023184
 ,0.00260454,0.00396433,-0.00089076,0.00055187,-0.00029298,0.00008460,-
 0.00000654,-0.00005948,0.00001825,-0.00008364,0.00003161,0.00001455,0.
 00002486,-0.00003870,0.00000203,0.00001173,0.00000107,0.00001035,-0.00
 001096,-0.00000131,0.00774192,-0.05190794,-0.05055142,0.00056887,-0.02
 324283,-0.00633288,-0.00019065,0.01458102,0.00479489,-0.00647228,0.057
 36237,0.04822580\\-0.00003396,-0.00001128,0.00000026,0.00000934,-0.000
 00896,-0.00000083,0.00000008,0.00000833,0.00001158,-0.00000461,0.00002
 487,0.00001310,0.00001308,-0.00000294,-0.00000490,-0.00001069,-0.00000
 812,-0.00001020,0.00001641,-0.00001631,-0.00001598,0.00001027,0.000002
 68,0.00001358,-0.00001014,0.00000443,0.00000234,0.00000387,0.00001035,
 0.00003319,0.00000883,-0.00000454,-0.00002219,-0.00001072,-0.00000807,
 -0.00000712,0.00001406,-0.00000793,-0.00000913,0.00000125,-0.00000775,
 0.00004286,-0.00000454,0.00002144,-0.00001525,0.00000090,-0.00001239,-
 0.00000618,-0.00000343,0.00001619,-0.00002514\\\@


 LOGIC IS A SYSTEMATIC METHOD OF COMING TO THE
 WRONG CONCLUSION WITH CONFIDENCE.
 Job cpu time:       0 days  0 hours  0 minutes  2.2 seconds.
 Elapsed time:       0 days  0 hours  0 minutes  2.3 seconds.
 File lengths (MBytes):  RWF=     10 Int=      0 D2E=      0 Chk=      2 Scr=      1
 Normal termination of Gaussian 16 at Fri Nov  3 15:08:34 2017.
